Program Version,EnergyPlus, Version 23.2.0-7636e6b3e9, YMD=2025.01.19 15:47
1,5,Environment Title[],Latitude[deg],Longitude[deg],Time Zone[],Elevation[m]
2,8,Day of Simulation[],Month[],Day of Month[],DST Indicator[1=yes 0=no],Hour[],StartMinute[],EndMinute[],DayType
3,5,Cumulative Day of Simulation[],Month[],Day of Month[],DST Indicator[1=yes 0=no],DayType  ! When Daily Report Variables Requested
4,2,Cumulative Days of Simulation[],Month[]  ! When Monthly Report Variables Requested
5,1,Cumulative Days of Simulation[] ! When Run Period Report Variables Requested
6,1,Calendar Year of Simulation[] ! When Annual Report Variables Requested
9,1,Electricity:Facility [J] !TimeStep
End of Data Dictionary
1,RUN PERIOD 1,  46.80, -71.38,  -5.00,  74.40
2,1, 1, 1, 0, 1, 0.00,10.00,Sunday
9,18087133.019872356
2,1, 1, 1, 0, 1,10.00,20.00,Sunday
9,18515137.31338167
2,1, 1, 1, 0, 1,20.00,30.00,Sunday
9,18407357.15058624
2,1, 1, 1, 0, 1,30.00,40.00,Sunday
9,18228636.958877336
2,1, 1, 1, 0, 1,40.00,50.00,Sunday
9,18360236.091731984
2,1, 1, 1, 0, 1,50.00,60.00,Sunday
9,17593365.7320475
2,1, 1, 1, 0, 2, 0.00,10.00,Sunday
9,19002625.70148802
2,1, 1, 1, 0, 2,10.00,20.00,Sunday
9,19198039.873749513
2,1, 1, 1, 0, 2,20.00,30.00,Sunday
9,19572887.76022764
2,1, 1, 1, 0, 2,30.00,40.00,Sunday
9,19091688.772608656
2,1, 1, 1, 0, 2,40.00,50.00,Sunday
9,18980148.879591927
2,1, 1, 1, 0, 2,50.00,60.00,Sunday
9,18819886.371649865
2,1, 1, 1, 0, 3, 0.00,10.00,Sunday
9,19865624.54298261
2,1, 1, 1, 0, 3,10.00,20.00,Sunday
9,19603178.15369888
2,1, 1, 1, 0, 3,20.00,30.00,Sunday
9,19671191.719448127
2,1, 1, 1, 0, 3,30.00,40.00,Sunday
9,19725560.760113165
2,1, 1, 1, 0, 3,40.00,50.00,Sunday
9,19987146.587504696
2,1, 1, 1, 0, 3,50.00,60.00,Sunday
9,19984157.713208538
2,1, 1, 1, 0, 4, 0.00,10.00,Sunday
9,20041059.757747985
2,1, 1, 1, 0, 4,10.00,20.00,Sunday
9,20092977.267309982
2,1, 1, 1, 0, 4,20.00,30.00,Sunday
9,20110486.70147841
2,1, 1, 1, 0, 4,30.00,40.00,Sunday
9,20529177.74706811
2,1, 1, 1, 0, 4,40.00,50.00,Sunday
9,20126509.87454832
2,1, 1, 1, 0, 4,50.00,60.00,Sunday
9,20127276.32040422
2,1, 1, 1, 0, 5, 0.00,10.00,Sunday
9,20553730.613831896
2,1, 1, 1, 0, 5,10.00,20.00,Sunday
9,21282753.536408324
2,1, 1, 1, 0, 5,20.00,30.00,Sunday
9,21178599.91646256
2,1, 1, 1, 0, 5,30.00,40.00,Sunday
9,21483369.62518705
2,1, 1, 1, 0, 5,40.00,50.00,Sunday
9,21786554.24042981
2,1, 1, 1, 0, 5,50.00,60.00,Sunday
9,22519891.87179707
2,1, 1, 1, 0, 6, 0.00,10.00,Sunday
9,21840341.977998827
2,1, 1, 1, 0, 6,10.00,20.00,Sunday
9,21547115.44729054
2,1, 1, 1, 0, 6,20.00,30.00,Sunday
9,21246781.711668056
2,1, 1, 1, 0, 6,30.00,40.00,Sunday
9,20964031.25898567
2,1, 1, 1, 0, 6,40.00,50.00,Sunday
9,21021830.988232806
2,1, 1, 1, 0, 6,50.00,60.00,Sunday
9,20301155.272857267
2,1, 1, 1, 0, 7, 0.00,10.00,Sunday
9,20532156.6185231
2,1, 1, 1, 0, 7,10.00,20.00,Sunday
9,20726178.302866176
2,1, 1, 1, 0, 7,20.00,30.00,Sunday
9,21329193.1804436
2,1, 1, 1, 0, 7,30.00,40.00,Sunday
9,21113977.671182528
2,1, 1, 1, 0, 7,40.00,50.00,Sunday
9,21306971.042460095
2,1, 1, 1, 0, 7,50.00,60.00,Sunday
9,21499315.398668002
2,1, 1, 1, 0, 8, 0.00,10.00,Sunday
9,21729135.123945393
2,1, 1, 1, 0, 8,10.00,20.00,Sunday
9,21119832.86546427
2,1, 1, 1, 0, 8,20.00,30.00,Sunday
9,20920475.846518096
2,1, 1, 1, 0, 8,30.00,40.00,Sunday
9,20075277.571762986
2,1, 1, 1, 0, 8,40.00,50.00,Sunday
9,19186810.152497955
2,1, 1, 1, 0, 8,50.00,60.00,Sunday
9,17711975.88399295
2,1, 1, 1, 0, 9, 0.00,10.00,Sunday
9,16796333.643000405
2,1, 1, 1, 0, 9,10.00,20.00,Sunday
9,15507219.187483735
2,1, 1, 1, 0, 9,20.00,30.00,Sunday
9,13853033.301016973
2,1, 1, 1, 0, 9,30.00,40.00,Sunday
9,13066582.510643715
2,1, 1, 1, 0, 9,40.00,50.00,Sunday
9,10571256.608438188
2,1, 1, 1, 0, 9,50.00,60.00,Sunday
9,9782985.98482464
2,1, 1, 1, 0,10, 0.00,10.00,Sunday
9,104775348.41125768
2,1, 1, 1, 0,10,10.00,20.00,Sunday
9,63367764.849384226
2,1, 1, 1, 0,10,20.00,30.00,Sunday
9,67321970.26786494
2,1, 1, 1, 0,10,30.00,40.00,Sunday
9,72727867.23363699
2,1, 1, 1, 0,10,40.00,50.00,Sunday
9,56265523.484035775
2,1, 1, 1, 0,10,50.00,60.00,Sunday
9,76468714.57479788
2,1, 1, 1, 0,11, 0.00,10.00,Sunday
9,98318554.76965992
2,1, 1, 1, 0,11,10.00,20.00,Sunday
9,49924867.193383805
2,1, 1, 1, 0,11,20.00,30.00,Sunday
9,72971382.30487983
2,1, 1, 1, 0,11,30.00,40.00,Sunday
9,69317467.13494068
2,1, 1, 1, 0,11,40.00,50.00,Sunday
9,77484309.46450299
2,1, 1, 1, 0,11,50.00,60.00,Sunday
9,62828486.12910045
2,1, 1, 1, 0,12, 0.00,10.00,Sunday
9,74678158.34654848
2,1, 1, 1, 0,12,10.00,20.00,Sunday
9,53317804.4815585
2,1, 1, 1, 0,12,20.00,30.00,Sunday
9,72419212.83719197
2,1, 1, 1, 0,12,30.00,40.00,Sunday
9,51478420.07564268
2,1, 1, 1, 0,12,40.00,50.00,Sunday
9,71958855.15536729
2,1, 1, 1, 0,12,50.00,60.00,Sunday
9,51748805.074204
2,1, 1, 1, 0,13, 0.00,10.00,Sunday
9,71257804.33396243
2,1, 1, 1, 0,13,10.00,20.00,Sunday
9,54157640.77803748
2,1, 1, 1, 0,13,20.00,30.00,Sunday
9,72724713.28316623
2,1, 1, 1, 0,13,30.00,40.00,Sunday
9,55846592.146744974
2,1, 1, 1, 0,13,40.00,50.00,Sunday
9,73892068.94296873
2,1, 1, 1, 0,13,50.00,60.00,Sunday
9,55762813.60627961
2,1, 1, 1, 0,14, 0.00,10.00,Sunday
9,74673960.44378124
2,1, 1, 1, 0,14,10.00,20.00,Sunday
9,55964949.083216116
2,1, 1, 1, 0,14,20.00,30.00,Sunday
9,73961830.91585639
2,1, 1, 1, 0,14,30.00,40.00,Sunday
9,55471324.49364841
2,1, 1, 1, 0,14,40.00,50.00,Sunday
9,72669773.10166433
2,1, 1, 1, 0,14,50.00,60.00,Sunday
9,54965876.10513079
2,1, 1, 1, 0,15, 0.00,10.00,Sunday
9,69953515.84423521
2,1, 1, 1, 0,15,10.00,20.00,Sunday
9,53817772.23728047
2,1, 1, 1, 0,15,20.00,30.00,Sunday
9,70266761.97126958
2,1, 1, 1, 0,15,30.00,40.00,Sunday
9,61127918.638413124
2,1, 1, 1, 0,15,40.00,50.00,Sunday
9,68052913.76356117
2,1, 1, 1, 0,15,50.00,60.00,Sunday
9,63332001.56372769
2,1, 1, 1, 0,16, 0.00,10.00,Sunday
9,66487305.78817779
2,1, 1, 1, 0,16,10.00,20.00,Sunday
9,68812407.75123814
2,1, 1, 1, 0,16,20.00,30.00,Sunday
9,70224698.92528328
2,1, 1, 1, 0,16,30.00,40.00,Sunday
9,70549410.23698656
2,1, 1, 1, 0,16,40.00,50.00,Sunday
9,71392681.0491719
2,1, 1, 1, 0,16,50.00,60.00,Sunday
9,72409210.88073838
2,1, 1, 1, 0,17, 0.00,10.00,Sunday
9,76792993.0198279
2,1, 1, 1, 0,17,10.00,20.00,Sunday
9,78731061.03099453
2,1, 1, 1, 0,17,20.00,30.00,Sunday
9,80105235.40538895
2,1, 1, 1, 0,17,30.00,40.00,Sunday
9,80983093.37872204
2,1, 1, 1, 0,17,40.00,50.00,Sunday
9,82296512.52371636
2,1, 1, 1, 0,17,50.00,60.00,Sunday
9,82520958.51307517
2,1, 1, 1, 0,18, 0.00,10.00,Sunday
9,86281386.93639942
2,1, 1, 1, 0,18,10.00,20.00,Sunday
9,82826257.07483126
2,1, 1, 1, 0,18,20.00,30.00,Sunday
9,87865760.70704378
2,1, 1, 1, 0,18,30.00,40.00,Sunday
9,80483405.53478518
2,1, 1, 1, 0,18,40.00,50.00,Sunday
9,90243961.15893367
2,1, 1, 1, 0,18,50.00,60.00,Sunday
9,78649606.22604571
2,1, 1, 1, 0,19, 0.00,10.00,Sunday
9,93106490.22994968
2,1, 1, 1, 0,19,10.00,20.00,Sunday
9,77246183.8890949
2,1, 1, 1, 0,19,20.00,30.00,Sunday
9,94325102.07946803
2,1, 1, 1, 0,19,30.00,40.00,Sunday
9,75631478.19012342
2,1, 1, 1, 0,19,40.00,50.00,Sunday
9,94722812.52407458
2,1, 1, 1, 0,19,50.00,60.00,Sunday
9,74536304.81597778
2,1, 1, 1, 0,20, 0.00,10.00,Sunday
9,5681804.828051754
2,1, 1, 1, 0,20,10.00,20.00,Sunday
9,6053265.303934525
2,1, 1, 1, 0,20,20.00,30.00,Sunday
9,5616851.8483789675
2,1, 1, 1, 0,20,30.00,40.00,Sunday
9,5603181.78138476
2,1, 1, 1, 0,20,40.00,50.00,Sunday
9,5590003.910838635
2,1, 1, 1, 0,20,50.00,60.00,Sunday
9,7026856.239839948
2,1, 1, 1, 0,21, 0.00,10.00,Sunday
9,7578893.656440123
2,1, 1, 1, 0,21,10.00,20.00,Sunday
9,8331713.613836139
2,1, 1, 1, 0,21,20.00,30.00,Sunday
9,10389506.684462061
2,1, 1, 1, 0,21,30.00,40.00,Sunday
9,16600294.62389698
2,1, 1, 1, 0,21,40.00,50.00,Sunday
9,13950133.15145696
2,1, 1, 1, 0,21,50.00,60.00,Sunday
9,14958332.332462424
2,1, 1, 1, 0,22, 0.00,10.00,Sunday
9,17942629.81105107
2,1, 1, 1, 0,22,10.00,20.00,Sunday
9,18778747.05749218
2,1, 1, 1, 0,22,20.00,30.00,Sunday
9,19379721.79422769
2,1, 1, 1, 0,22,30.00,40.00,Sunday
9,19140255.281869117
2,1, 1, 1, 0,22,40.00,50.00,Sunday
9,19227439.0426006
2,1, 1, 1, 0,22,50.00,60.00,Sunday
9,19257516.24895251
2,1, 1, 1, 0,23, 0.00,10.00,Sunday
9,21444215.33711784
2,1, 1, 1, 0,23,10.00,20.00,Sunday
9,21543719.304710116
2,1, 1, 1, 0,23,20.00,30.00,Sunday
9,21804592.03955654
2,1, 1, 1, 0,23,30.00,40.00,Sunday
9,22031295.252630036
2,1, 1, 1, 0,23,40.00,50.00,Sunday
9,22632120.791238245
2,1, 1, 1, 0,23,50.00,60.00,Sunday
9,22379055.259566415
2,1, 1, 1, 0,24, 0.00,10.00,Sunday
9,22916475.108244102
2,1, 1, 1, 0,24,10.00,20.00,Sunday
9,22885734.06475629
2,1, 1, 1, 0,24,20.00,30.00,Sunday
9,23007953.54760994
2,1, 1, 1, 0,24,30.00,40.00,Sunday
9,22760496.26906131
2,1, 1, 1, 0,24,40.00,50.00,Sunday
9,22441714.373556748
2,1, 1, 1, 0,24,50.00,60.00,Sunday
9,22267739.095015105
2,2, 1, 2, 0, 1, 0.00,10.00,Monday
9,22732217.13321965
2,2, 1, 2, 0, 1,10.00,20.00,Monday
9,23398719.25018902
2,2, 1, 2, 0, 1,20.00,30.00,Monday
9,23213043.344840888
2,2, 1, 2, 0, 1,30.00,40.00,Monday
9,23426543.595139094
2,2, 1, 2, 0, 1,40.00,50.00,Monday
9,23632433.410730973
2,2, 1, 2, 0, 1,50.00,60.00,Monday
9,24243461.10585118
2,2, 1, 2, 0, 2, 0.00,10.00,Monday
9,23323633.235680025
2,2, 1, 2, 0, 2,10.00,20.00,Monday
9,22754751.473839387
2,2, 1, 2, 0, 2,20.00,30.00,Monday
9,22176952.39657272
2,2, 1, 2, 0, 2,30.00,40.00,Monday
9,22012359.673020244
2,2, 1, 2, 0, 2,40.00,50.00,Monday
9,21019542.977422256
2,2, 1, 2, 0, 2,50.00,60.00,Monday
9,20438937.52608064
2,2, 1, 2, 0, 3, 0.00,10.00,Monday
9,20457806.621885244
2,2, 1, 2, 0, 3,10.00,20.00,Monday
9,20540753.483742762
2,2, 1, 2, 0, 3,20.00,30.00,Monday
9,20767343.850074735
2,2, 1, 2, 0, 3,30.00,40.00,Monday
9,20438282.139522996
2,2, 1, 2, 0, 3,40.00,50.00,Monday
9,20429309.580374997
2,2, 1, 2, 0, 3,50.00,60.00,Monday
9,20419800.780402467
2,2, 1, 2, 0, 4, 0.00,10.00,Monday
9,20533878.350746576
2,2, 1, 2, 0, 4,10.00,20.00,Monday
9,19832001.678817797
2,2, 1, 2, 0, 4,20.00,30.00,Monday
9,19538130.498558242
2,2, 1, 2, 0, 4,30.00,40.00,Monday
9,19244403.174389776
2,2, 1, 2, 0, 4,40.00,50.00,Monday
9,19362883.68259404
2,2, 1, 2, 0, 4,50.00,60.00,Monday
9,18667536.01331307
2,2, 1, 2, 0, 5, 0.00,10.00,Monday
9,18835134.127830278
2,2, 1, 2, 0, 5,10.00,20.00,Monday
9,19012559.749955807
2,2, 1, 2, 0, 5,20.00,30.00,Monday
9,19509784.882938635
2,2, 1, 2, 0, 5,30.00,40.00,Monday
9,19422309.640259024
2,2, 1, 2, 0, 5,40.00,50.00,Monday
9,19487111.485223908
2,2, 1, 2, 0, 5,50.00,60.00,Monday
9,19627683.441543765
2,2, 1, 2, 0, 6, 0.00,10.00,Monday
9,19870436.74976602
2,2, 1, 2, 0, 6,10.00,20.00,Monday
9,20615423.18698636
2,2, 1, 2, 0, 6,20.00,30.00,Monday
9,20556405.73712416
2,2, 1, 2, 0, 6,30.00,40.00,Monday
9,20898077.211458016
2,2, 1, 2, 0, 6,40.00,50.00,Monday
9,21234486.369474463
2,2, 1, 2, 0, 6,50.00,60.00,Monday
9,6892895.204539067
2,2, 1, 2, 0, 7, 0.00,10.00,Monday
9,16028908.458985412
2,2, 1, 2, 0, 7,10.00,20.00,Monday
9,52730951.49003892
2,2, 1, 2, 0, 7,20.00,30.00,Monday
9,18777031.403276615
2,2, 1, 2, 0, 7,30.00,40.00,Monday
9,21932240.599304512
2,2, 1, 2, 0, 7,40.00,50.00,Monday
9,23001945.96786554
2,2, 1, 2, 0, 7,50.00,60.00,Monday
9,22776441.95054528
2,2, 1, 2, 0, 8, 0.00,10.00,Monday
9,69205257.18806754
2,2, 1, 2, 0, 8,10.00,20.00,Monday
9,36912066.56343338
2,2, 1, 2, 0, 8,20.00,30.00,Monday
9,42122799.34577696
2,2, 1, 2, 0, 8,30.00,40.00,Monday
9,35379020.153960705
2,2, 1, 2, 0, 8,40.00,50.00,Monday
9,33313014.291941844
2,2, 1, 2, 0, 8,50.00,60.00,Monday
9,32419494.527535208
2,2, 1, 2, 0, 9, 0.00,10.00,Monday
9,84236583.08413403
2,2, 1, 2, 0, 9,10.00,20.00,Monday
9,62397646.7125186
2,2, 1, 2, 0, 9,20.00,30.00,Monday
9,37385975.71586885
2,2, 1, 2, 0, 9,30.00,40.00,Monday
9,61638152.53098368
2,2, 1, 2, 0, 9,40.00,50.00,Monday
9,35372367.54340567
2,2, 1, 2, 0, 9,50.00,60.00,Monday
9,37721088.50639626
2,2, 1, 2, 0,10, 0.00,10.00,Monday
9,81783410.20865636
2,2, 1, 2, 0,10,10.00,20.00,Monday
9,69002441.88328706
2,2, 1, 2, 0,10,20.00,30.00,Monday
9,87280311.82480507
2,2, 1, 2, 0,10,30.00,40.00,Monday
9,62833041.67110829
2,2, 1, 2, 0,10,40.00,50.00,Monday
9,78493806.39364578
2,2, 1, 2, 0,10,50.00,60.00,Monday
9,79391451.21162905
2,2, 1, 2, 0,11, 0.00,10.00,Monday
9,67673309.86763103
2,2, 1, 2, 0,11,10.00,20.00,Monday
9,86047477.7386974
2,2, 1, 2, 0,11,20.00,30.00,Monday
9,79755284.16736963
2,2, 1, 2, 0,11,30.00,40.00,Monday
9,79373076.50655486
2,2, 1, 2, 0,11,40.00,50.00,Monday
9,76654826.99057725
2,2, 1, 2, 0,11,50.00,60.00,Monday
9,75938625.48642112
2,2, 1, 2, 0,12, 0.00,10.00,Monday
9,79841307.03501976
2,2, 1, 2, 0,12,10.00,20.00,Monday
9,77186089.69428605
2,2, 1, 2, 0,12,20.00,30.00,Monday
9,87713193.05961353
2,2, 1, 2, 0,12,30.00,40.00,Monday
9,73084401.31337363
2,2, 1, 2, 0,12,40.00,50.00,Monday
9,93035319.45181118
2,2, 1, 2, 0,12,50.00,60.00,Monday
9,84071829.19464712
2,2, 1, 2, 0,13, 0.00,10.00,Monday
9,82887256.76247464
2,2, 1, 2, 0,13,10.00,20.00,Monday
9,79964861.79689005
2,2, 1, 2, 0,13,20.00,30.00,Monday
9,80385629.6582051
2,2, 1, 2, 0,13,30.00,40.00,Monday
9,82522560.2215896
2,2, 1, 2, 0,13,40.00,50.00,Monday
9,80267724.22492944
2,2, 1, 2, 0,13,50.00,60.00,Monday
9,74897481.33602132
2,2, 1, 2, 0,14, 0.00,10.00,Monday
9,80597256.53262235
2,2, 1, 2, 0,14,10.00,20.00,Monday
9,78242597.19567476
2,2, 1, 2, 0,14,20.00,30.00,Monday
9,83483574.2107731
2,2, 1, 2, 0,14,30.00,40.00,Monday
9,69834457.18852055
2,2, 1, 2, 0,14,40.00,50.00,Monday
9,91202669.9705751
2,2, 1, 2, 0,14,50.00,60.00,Monday
9,84515301.23102957
2,2, 1, 2, 0,15, 0.00,10.00,Monday
9,84646207.48840508
2,2, 1, 2, 0,15,10.00,20.00,Monday
9,83795322.14814448
2,2, 1, 2, 0,15,20.00,30.00,Monday
9,85379522.18663958
2,2, 1, 2, 0,15,30.00,40.00,Monday
9,88220269.23525861
2,2, 1, 2, 0,15,40.00,50.00,Monday
9,89272406.28549078
2,2, 1, 2, 0,15,50.00,60.00,Monday
9,91703979.64605987
2,2, 1, 2, 0,16, 0.00,10.00,Monday
9,97310296.67663816
2,2, 1, 2, 0,16,10.00,20.00,Monday
9,94679046.43490148
2,2, 1, 2, 0,16,20.00,30.00,Monday
9,96333676.20973484
2,2, 1, 2, 0,16,30.00,40.00,Monday
9,94291101.54547794
2,2, 1, 2, 0,16,40.00,50.00,Monday
9,94942952.9214829
2,2, 1, 2, 0,16,50.00,60.00,Monday
9,93273731.55935541
2,2, 1, 2, 0,17, 0.00,10.00,Monday
9,95296279.70285186
2,2, 1, 2, 0,17,10.00,20.00,Monday
9,92472904.04464434
2,2, 1, 2, 0,17,20.00,30.00,Monday
9,95742414.84471482
2,2, 1, 2, 0,17,30.00,40.00,Monday
9,94444757.49387643
2,2, 1, 2, 0,17,40.00,50.00,Monday
9,96438534.35462226
2,2, 1, 2, 0,17,50.00,60.00,Monday
9,94106666.26640558
2,2, 1, 2, 0,18, 0.00,10.00,Monday
9,98997695.66692784
2,2, 1, 2, 0,18,10.00,20.00,Monday
9,98882162.96159384
2,2, 1, 2, 0,18,20.00,30.00,Monday
9,102291444.3034707
2,2, 1, 2, 0,18,30.00,40.00,Monday
9,100914645.19934872
2,2, 1, 2, 0,18,40.00,50.00,Monday
9,105631299.6042792
2,2, 1, 2, 0,18,50.00,60.00,Monday
9,104997849.67051548
2,2, 1, 2, 0,19, 0.00,10.00,Monday
9,107211489.68602832
2,2, 1, 2, 0,19,10.00,20.00,Monday
9,103412192.99995458
2,2, 1, 2, 0,19,20.00,30.00,Monday
9,106665366.95241928
2,2, 1, 2, 0,19,30.00,40.00,Monday
9,103161591.44125763
2,2, 1, 2, 0,19,40.00,50.00,Monday
9,105920087.37391867
2,2, 1, 2, 0,19,50.00,60.00,Monday
9,102255199.63430846
2,2, 1, 2, 0,20, 0.00,10.00,Monday
9,95201151.48096925
2,2, 1, 2, 0,20,10.00,20.00,Monday
9,99042673.49989013
2,2, 1, 2, 0,20,20.00,30.00,Monday
9,99926865.96655011
2,2, 1, 2, 0,20,30.00,40.00,Monday
9,100491800.23967941
2,2, 1, 2, 0,20,40.00,50.00,Monday
9,101683938.92450154
2,2, 1, 2, 0,20,50.00,60.00,Monday
9,102509719.2815745
2,2, 1, 2, 0,21, 0.00,10.00,Monday
9,103350224.19271481
2,2, 1, 2, 0,21,10.00,20.00,Monday
9,104230211.95448832
2,2, 1, 2, 0,21,20.00,30.00,Monday
9,104995847.43776809
2,2, 1, 2, 0,21,30.00,40.00,Monday
9,105258105.6203282
2,2, 1, 2, 0,21,40.00,50.00,Monday
9,105639374.52489229
2,2, 1, 2, 0,21,50.00,60.00,Monday
9,106412546.85056268
2,2, 1, 2, 0,22, 0.00,10.00,Monday
9,1290079.1397195188
2,2, 1, 2, 0,22,10.00,20.00,Monday
9,1704389.2359510146
2,2, 1, 2, 0,22,20.00,30.00,Monday
9,1290079.1397195188
2,2, 1, 2, 0,22,30.00,40.00,Monday
9,5769922.223355654
2,2, 1, 2, 0,22,40.00,50.00,Monday
9,6250948.082198569
2,2, 1, 2, 0,22,50.00,60.00,Monday
9,5823905.384784776
2,2, 1, 2, 0,23, 0.00,10.00,Monday
9,9776925.674251039
2,2, 1, 2, 0,23,10.00,20.00,Monday
9,10352911.040522369
2,2, 1, 2, 0,23,20.00,30.00,Monday
9,21237035.60577541
2,2, 1, 2, 0,23,30.00,40.00,Monday
9,20156587.238368902
2,2, 1, 2, 0,23,40.00,50.00,Monday
9,19691201.51978695
2,2, 1, 2, 0,23,50.00,60.00,Monday
9,21089084.530386772
2,2, 1, 2, 0,24, 0.00,10.00,Monday
9,25152619.94101649
2,2, 1, 2, 0,24,10.00,20.00,Monday
9,26656217.418645326
2,2, 1, 2, 0,24,20.00,30.00,Monday
9,27899490.644955415
2,2, 1, 2, 0,24,30.00,40.00,Monday
9,28252039.341161046
2,2, 1, 2, 0,24,40.00,50.00,Monday
9,28924319.388888948
2,2, 1, 2, 0,24,50.00,60.00,Monday
9,29529568.80878743
2,3, 1, 3, 0, 1, 0.00,10.00,Tuesday
9,32521121.991178695
2,3, 1, 3, 0, 1,10.00,20.00,Tuesday
9,33318454.534050975
2,3, 1, 3, 0, 1,20.00,30.00,Tuesday
9,34106070.80604516
2,3, 1, 3, 0, 1,30.00,40.00,Tuesday
9,34917922.51599396
2,3, 1, 3, 0, 1,40.00,50.00,Tuesday
9,35695799.44825703
2,3, 1, 3, 0, 1,50.00,60.00,Tuesday
9,36856604.28497224
2,3, 1, 3, 0, 2, 0.00,10.00,Tuesday
9,36914213.80200943
2,3, 1, 3, 0, 2,10.00,20.00,Tuesday
9,36536864.972105086
2,3, 1, 3, 0, 2,20.00,30.00,Tuesday
9,35996803.05465403
2,3, 1, 3, 0, 2,30.00,40.00,Tuesday
9,35836725.068836935
2,3, 1, 3, 0, 2,40.00,50.00,Tuesday
9,34825029.300455235
2,3, 1, 3, 0, 2,50.00,60.00,Tuesday
9,34197213.12050383
2,3, 1, 3, 0, 3, 0.00,10.00,Tuesday
9,34971576.47968894
2,3, 1, 3, 0, 3,10.00,20.00,Tuesday
9,35648189.71545171
2,3, 1, 3, 0, 3,20.00,30.00,Tuesday
9,35411313.077903375
2,3, 1, 3, 0, 3,30.00,40.00,Tuesday
9,35572585.29965611
2,3, 1, 3, 0, 3,40.00,50.00,Tuesday
9,35720702.16049925
2,3, 1, 3, 0, 3,50.00,60.00,Tuesday
9,36105337.80101794
2,3, 1, 3, 0, 4, 0.00,10.00,Tuesday
9,36845643.81371266
2,3, 1, 3, 0, 4,10.00,20.00,Tuesday
9,37253877.57190928
2,3, 1, 3, 0, 4,20.00,30.00,Tuesday
9,37795699.592868164
2,3, 1, 3, 0, 4,30.00,40.00,Tuesday
9,38340365.13062888
2,3, 1, 3, 0, 4,40.00,50.00,Tuesday
9,39294005.272068985
2,3, 1, 3, 0, 4,50.00,60.00,Tuesday
9,39436435.538680606
2,3, 1, 3, 0, 5, 0.00,10.00,Tuesday
9,40041049.442365564
2,3, 1, 3, 0, 5,10.00,20.00,Tuesday
9,40373629.55676928
2,3, 1, 3, 0, 5,20.00,30.00,Tuesday
9,41072735.91142158
2,3, 1, 3, 0, 5,30.00,40.00,Tuesday
9,40944689.25309276
2,3, 1, 3, 0, 5,40.00,50.00,Tuesday
9,41221546.459898755
2,3, 1, 3, 0, 5,50.00,60.00,Tuesday
9,41495134.728825934
2,3, 1, 3, 0, 6, 0.00,10.00,Tuesday
9,42121293.86552329
2,3, 1, 3, 0, 6,10.00,20.00,Tuesday
9,41720035.13658233
2,3, 1, 3, 0, 6,20.00,30.00,Tuesday
9,41747554.209018365
2,3, 1, 3, 0, 6,30.00,40.00,Tuesday
9,41673371.26533292
2,3, 1, 3, 0, 6,40.00,50.00,Tuesday
9,41751938.4214138
2,3, 1, 3, 0, 6,50.00,60.00,Tuesday
9,41902823.2950509
2,3, 1, 3, 0, 7, 0.00,10.00,Tuesday
9,52088667.96943801
2,3, 1, 3, 0, 7,10.00,20.00,Tuesday
9,47962299.59963935
2,3, 1, 3, 0, 7,20.00,30.00,Tuesday
9,44512157.719330266
2,3, 1, 3, 0, 7,30.00,40.00,Tuesday
9,43085898.36656362
2,3, 1, 3, 0, 7,40.00,50.00,Tuesday
9,46309324.44470575
2,3, 1, 3, 0, 7,50.00,60.00,Tuesday
9,45041115.598337464
2,3, 1, 3, 0, 8, 0.00,10.00,Tuesday
9,106422543.43630373
2,3, 1, 3, 0, 8,10.00,20.00,Tuesday
9,76811342.14320377
2,3, 1, 3, 0, 8,20.00,30.00,Tuesday
9,51623453.921703234
2,3, 1, 3, 0, 8,30.00,40.00,Tuesday
9,53049211.51486667
2,3, 1, 3, 0, 8,40.00,50.00,Tuesday
9,55012492.138997205
2,3, 1, 3, 0, 8,50.00,60.00,Tuesday
9,49675223.4668823
2,3, 1, 3, 0, 9, 0.00,10.00,Tuesday
9,87936304.38122581
2,3, 1, 3, 0, 9,10.00,20.00,Tuesday
9,87900164.11581844
2,3, 1, 3, 0, 9,20.00,30.00,Tuesday
9,50091434.19685078
2,3, 1, 3, 0, 9,30.00,40.00,Tuesday
9,53532618.7614199
2,3, 1, 3, 0, 9,40.00,50.00,Tuesday
9,55929590.12510188
2,3, 1, 3, 0, 9,50.00,60.00,Tuesday
9,49847450.09074435
2,3, 1, 3, 0,10, 0.00,10.00,Tuesday
9,122183444.4264984
2,3, 1, 3, 0,10,10.00,20.00,Tuesday
9,118632148.74129598
2,3, 1, 3, 0,10,20.00,30.00,Tuesday
9,116526749.14508355
2,3, 1, 3, 0,10,30.00,40.00,Tuesday
9,114508829.98648955
2,3, 1, 3, 0,10,40.00,50.00,Tuesday
9,113724500.09035297
2,3, 1, 3, 0,10,50.00,60.00,Tuesday
9,114298776.44322343
2,3, 1, 3, 0,11, 0.00,10.00,Tuesday
9,99788511.08049518
2,3, 1, 3, 0,11,10.00,20.00,Tuesday
9,105761230.57693493
2,3, 1, 3, 0,11,20.00,30.00,Tuesday
9,104042226.90375979
2,3, 1, 3, 0,11,30.00,40.00,Tuesday
9,102662246.61190869
2,3, 1, 3, 0,11,40.00,50.00,Tuesday
9,101177718.82813953
2,3, 1, 3, 0,11,50.00,60.00,Tuesday
9,105485701.14360401
2,3, 1, 3, 0,12, 0.00,10.00,Tuesday
9,103955840.52647562
2,3, 1, 3, 0,12,10.00,20.00,Tuesday
9,103009799.29619943
2,3, 1, 3, 0,12,20.00,30.00,Tuesday
9,100653793.7339163
2,3, 1, 3, 0,12,30.00,40.00,Tuesday
9,101243156.80804913
2,3, 1, 3, 0,12,40.00,50.00,Tuesday
9,101489133.17339891
2,3, 1, 3, 0,12,50.00,60.00,Tuesday
9,101299195.29259577
2,3, 1, 3, 0,13, 0.00,10.00,Tuesday
9,100830213.57552138
2,3, 1, 3, 0,13,10.00,20.00,Tuesday
9,102013590.33686684
2,3, 1, 3, 0,13,20.00,30.00,Tuesday
9,101312537.56442958
2,3, 1, 3, 0,13,30.00,40.00,Tuesday
9,100016282.97262965
2,3, 1, 3, 0,13,40.00,50.00,Tuesday
9,99307493.91488713
2,3, 1, 3, 0,13,50.00,60.00,Tuesday
9,99502032.02916907
2,3, 1, 3, 0,14, 0.00,10.00,Tuesday
9,90895146.26501834
2,3, 1, 3, 0,14,10.00,20.00,Tuesday
9,103372290.98182389
2,3, 1, 3, 0,14,20.00,30.00,Tuesday
9,86729246.22284852
2,3, 1, 3, 0,14,30.00,40.00,Tuesday
9,96860543.61133137
2,3, 1, 3, 0,14,40.00,50.00,Tuesday
9,94390134.31388149
2,3, 1, 3, 0,14,50.00,60.00,Tuesday
9,96014830.54088683
2,3, 1, 3, 0,15, 0.00,10.00,Tuesday
9,100819292.11918847
2,3, 1, 3, 0,15,10.00,20.00,Tuesday
9,95907430.59982881
2,3, 1, 3, 0,15,20.00,30.00,Tuesday
9,99526864.25544563
2,3, 1, 3, 0,15,30.00,40.00,Tuesday
9,100291343.36299412
2,3, 1, 3, 0,15,40.00,50.00,Tuesday
9,98784888.79080467
2,3, 1, 3, 0,15,50.00,60.00,Tuesday
9,102885494.46971543
2,3, 1, 3, 0,16, 0.00,10.00,Tuesday
9,104225248.51525049
2,3, 1, 3, 0,16,10.00,20.00,Tuesday
9,110040157.09129168
2,3, 1, 3, 0,16,20.00,30.00,Tuesday
9,110077860.57505926
2,3, 1, 3, 0,16,30.00,40.00,Tuesday
9,110767272.84993984
2,3, 1, 3, 0,16,40.00,50.00,Tuesday
9,115308000.42689623
2,3, 1, 3, 0,16,50.00,60.00,Tuesday
9,114312425.63221359
2,3, 1, 3, 0,17, 0.00,10.00,Tuesday
9,124236672.87602329
2,3, 1, 3, 0,17,10.00,20.00,Tuesday
9,127646888.0147287
2,3, 1, 3, 0,17,20.00,30.00,Tuesday
9,129618676.39608608
2,3, 1, 3, 0,17,30.00,40.00,Tuesday
9,132807223.56100935
2,3, 1, 3, 0,17,40.00,50.00,Tuesday
9,129763627.2045294
2,3, 1, 3, 0,17,50.00,60.00,Tuesday
9,136019297.2094792
2,3, 1, 3, 0,18, 0.00,10.00,Tuesday
9,139235793.0168573
2,3, 1, 3, 0,18,10.00,20.00,Tuesday
9,142301723.3962263
2,3, 1, 3, 0,18,20.00,30.00,Tuesday
9,140360285.33823463
2,3, 1, 3, 0,18,30.00,40.00,Tuesday
9,143881093.55932796
2,3, 1, 3, 0,18,40.00,50.00,Tuesday
9,141153078.79334345
2,3, 1, 3, 0,18,50.00,60.00,Tuesday
9,143799782.50864342
2,3, 1, 3, 0,19, 0.00,10.00,Tuesday
9,143520942.37211657
2,3, 1, 3, 0,19,10.00,20.00,Tuesday
9,146355347.15773892
2,3, 1, 3, 0,19,20.00,30.00,Tuesday
9,142110580.97106242
2,3, 1, 3, 0,19,30.00,40.00,Tuesday
9,146260108.19808483
2,3, 1, 3, 0,19,40.00,50.00,Tuesday
9,143083946.44232595
2,3, 1, 3, 0,19,50.00,60.00,Tuesday
9,145985924.03469414
2,3, 1, 3, 0,20, 0.00,10.00,Tuesday
9,128482720.80049631
2,3, 1, 3, 0,20,10.00,20.00,Tuesday
9,139602772.0107082
2,3, 1, 3, 0,20,20.00,30.00,Tuesday
9,138909957.94665688
2,3, 1, 3, 0,20,30.00,40.00,Tuesday
9,139921387.69716164
2,3, 1, 3, 0,20,40.00,50.00,Tuesday
9,141117833.96454546
2,3, 1, 3, 0,20,50.00,60.00,Tuesday
9,141192387.80040285
2,3, 1, 3, 0,21, 0.00,10.00,Tuesday
9,142827606.16685557
2,3, 1, 3, 0,21,10.00,20.00,Tuesday
9,139205254.3365045
2,3, 1, 3, 0,21,20.00,30.00,Tuesday
9,143080038.32745168
2,3, 1, 3, 0,21,30.00,40.00,Tuesday
9,139786385.65450382
2,3, 1, 3, 0,21,40.00,50.00,Tuesday
9,141918119.78768146
2,3, 1, 3, 0,21,50.00,60.00,Tuesday
9,138557096.8204542
2,3, 1, 3, 0,22, 0.00,10.00,Tuesday
9,1290079.1397195188
2,3, 1, 3, 0,22,10.00,20.00,Tuesday
9,1705438.3673997214
2,3, 1, 3, 0,22,20.00,30.00,Tuesday
9,4619982.177249993
2,3, 1, 3, 0,22,30.00,40.00,Tuesday
9,9141722.94929117
2,3, 1, 3, 0,22,40.00,50.00,Tuesday
9,11781580.164444903
2,3, 1, 3, 0,22,50.00,60.00,Tuesday
9,15620603.482160373
2,3, 1, 3, 0,23, 0.00,10.00,Tuesday
9,30063738.154231507
2,3, 1, 3, 0,23,10.00,20.00,Tuesday
9,28652991.405699577
2,3, 1, 3, 0,23,20.00,30.00,Tuesday
9,30383225.426990937
2,3, 1, 3, 0,23,30.00,40.00,Tuesday
9,32045802.438108493
2,3, 1, 3, 0,23,40.00,50.00,Tuesday
9,33427284.776661012
2,3, 1, 3, 0,23,50.00,60.00,Tuesday
9,33849359.12949303
2,3, 1, 3, 0,24, 0.00,10.00,Tuesday
9,37959571.45309113
2,3, 1, 3, 0,24,10.00,20.00,Tuesday
9,39216434.860979296
2,3, 1, 3, 0,24,20.00,30.00,Tuesday
9,40301160.43113958
2,3, 1, 3, 0,24,30.00,40.00,Tuesday
9,40484865.58463146
2,3, 1, 3, 0,24,40.00,50.00,Tuesday
9,40987428.6385688
2,3, 1, 3, 0,24,50.00,60.00,Tuesday
9,41422724.98329069
2,4, 1, 4, 0, 1, 0.00,10.00,Wednesday
9,43575166.297238566
2,4, 1, 4, 0, 1,10.00,20.00,Wednesday
9,43711089.091721326
2,4, 1, 4, 0, 1,20.00,30.00,Wednesday
9,43862055.556187846
2,4, 1, 4, 0, 1,30.00,40.00,Wednesday
9,44033058.34434661
2,4, 1, 4, 0, 1,40.00,50.00,Wednesday
9,44165125.273700245
2,4, 1, 4, 0, 1,50.00,60.00,Wednesday
9,44674249.67869049
2,4, 1, 4, 0, 2, 0.00,10.00,Wednesday
9,44902207.52223594
2,4, 1, 4, 0, 2,10.00,20.00,Wednesday
9,44968851.79663326
2,4, 1, 4, 0, 2,20.00,30.00,Wednesday
9,44939062.20202004
2,4, 1, 4, 0, 2,30.00,40.00,Wednesday
9,45305610.09781355
2,4, 1, 4, 0, 2,40.00,50.00,Wednesday
9,44834953.338578604
2,4, 1, 4, 0, 2,50.00,60.00,Wednesday
9,44763633.76736005
2,4, 1, 4, 0, 3, 0.00,10.00,Wednesday
9,45160521.79779838
2,4, 1, 4, 0, 3,10.00,20.00,Wednesday
9,45716119.02166531
2,4, 1, 4, 0, 3,20.00,30.00,Wednesday
9,45405424.873036936
2,4, 1, 4, 0, 3,30.00,40.00,Wednesday
9,45501195.22405857
2,4, 1, 4, 0, 3,40.00,50.00,Wednesday
9,45590937.60957004
2,4, 1, 4, 0, 3,50.00,60.00,Wednesday
9,45942188.2018339
2,4, 1, 4, 0, 4, 0.00,10.00,Wednesday
9,46105192.69089215
2,4, 1, 4, 0, 4,10.00,20.00,Wednesday
9,46100329.4836027
2,4, 1, 4, 0, 4,20.00,30.00,Wednesday
9,46218866.00643894
2,4, 1, 4, 0, 4,30.00,40.00,Wednesday
9,46335416.767284416
2,4, 1, 4, 0, 4,40.00,50.00,Wednesday
9,46855844.70077453
2,4, 1, 4, 0, 4,50.00,60.00,Wednesday
9,46560347.84611229
2,4, 1, 4, 0, 5, 0.00,10.00,Wednesday
9,46579631.10996972
2,4, 1, 4, 0, 5,10.00,20.00,Wednesday
9,46463677.185963705
2,4, 1, 4, 0, 5,20.00,30.00,Wednesday
9,46735041.55101977
2,4, 1, 4, 0, 5,30.00,40.00,Wednesday
9,46180479.934830725
2,4, 1, 4, 0, 5,40.00,50.00,Wednesday
9,46032038.17872517
2,4, 1, 4, 0, 5,50.00,60.00,Wednesday
9,45880884.73533489
2,4, 1, 4, 0, 6, 0.00,10.00,Wednesday
9,46686817.02285298
2,4, 1, 4, 0, 6,10.00,20.00,Wednesday
9,46582517.412193194
2,4, 1, 4, 0, 6,20.00,30.00,Wednesday
9,46880849.80070117
2,4, 1, 4, 0, 6,30.00,40.00,Wednesday
9,47234633.70662756
2,4, 1, 4, 0, 6,40.00,50.00,Wednesday
9,47633363.20839479
2,4, 1, 4, 0, 6,50.00,60.00,Wednesday
9,48029556.03474103
2,4, 1, 4, 0, 7, 0.00,10.00,Wednesday
9,61690810.85326658
2,4, 1, 4, 0, 7,10.00,20.00,Wednesday
9,54793600.448703215
2,4, 1, 4, 0, 7,20.00,30.00,Wednesday
9,50061272.87400943
2,4, 1, 4, 0, 7,30.00,40.00,Wednesday
9,49056884.48237342
2,4, 1, 4, 0, 7,40.00,50.00,Wednesday
9,49598279.74114506
2,4, 1, 4, 0, 7,50.00,60.00,Wednesday
9,49757178.13927945
2,4, 1, 4, 0, 8, 0.00,10.00,Wednesday
9,102176338.51270595
2,4, 1, 4, 0, 8,10.00,20.00,Wednesday
9,83264458.77816932
2,4, 1, 4, 0, 8,20.00,30.00,Wednesday
9,52414435.80220538
2,4, 1, 4, 0, 8,30.00,40.00,Wednesday
9,57957476.95279599
2,4, 1, 4, 0, 8,40.00,50.00,Wednesday
9,76349111.86443314
2,4, 1, 4, 0, 8,50.00,60.00,Wednesday
9,54292240.473994285
2,4, 1, 4, 0, 9, 0.00,10.00,Wednesday
9,92706301.17016768
2,4, 1, 4, 0, 9,10.00,20.00,Wednesday
9,85263026.8548957
2,4, 1, 4, 0, 9,20.00,30.00,Wednesday
9,68197456.97851282
2,4, 1, 4, 0, 9,30.00,40.00,Wednesday
9,59839386.18902572
2,4, 1, 4, 0, 9,40.00,50.00,Wednesday
9,68084533.25029542
2,4, 1, 4, 0, 9,50.00,60.00,Wednesday
9,46704590.15431415
2,4, 1, 4, 0,10, 0.00,10.00,Wednesday
9,154493778.29477906
2,4, 1, 4, 0,10,10.00,20.00,Wednesday
9,139973152.90320942
2,4, 1, 4, 0,10,20.00,30.00,Wednesday
9,130623328.50540812
2,4, 1, 4, 0,10,30.00,40.00,Wednesday
9,143738446.4120348
2,4, 1, 4, 0,10,40.00,50.00,Wednesday
9,139154638.1994154
2,4, 1, 4, 0,10,50.00,60.00,Wednesday
9,137588437.96379927
2,4, 1, 4, 0,11, 0.00,10.00,Wednesday
9,116967265.74514285
2,4, 1, 4, 0,11,10.00,20.00,Wednesday
9,124325736.85026634
2,4, 1, 4, 0,11,20.00,30.00,Wednesday
9,111611812.92493846
2,4, 1, 4, 0,11,30.00,40.00,Wednesday
9,118929366.06900203
2,4, 1, 4, 0,11,40.00,50.00,Wednesday
9,112429068.84199975
2,4, 1, 4, 0,11,50.00,60.00,Wednesday
9,113084812.62743028
2,4, 1, 4, 0,12, 0.00,10.00,Wednesday
9,102177942.16073021
2,4, 1, 4, 0,12,10.00,20.00,Wednesday
9,118346485.49585305
2,4, 1, 4, 0,12,20.00,30.00,Wednesday
9,96428348.54616405
2,4, 1, 4, 0,12,30.00,40.00,Wednesday
9,111038287.04520546
2,4, 1, 4, 0,12,40.00,50.00,Wednesday
9,110748340.75638944
2,4, 1, 4, 0,12,50.00,60.00,Wednesday
9,118265232.48564282
2,4, 1, 4, 0,13, 0.00,10.00,Wednesday
9,99985292.79388066
2,4, 1, 4, 0,13,10.00,20.00,Wednesday
9,112740792.27003382
2,4, 1, 4, 0,13,20.00,30.00,Wednesday
9,112053264.17019184
2,4, 1, 4, 0,13,30.00,40.00,Wednesday
9,113221769.56225418
2,4, 1, 4, 0,13,40.00,50.00,Wednesday
9,113075313.85300119
2,4, 1, 4, 0,13,50.00,60.00,Wednesday
9,108961318.87320198
2,4, 1, 4, 0,14, 0.00,10.00,Wednesday
9,109933694.66957082
2,4, 1, 4, 0,14,10.00,20.00,Wednesday
9,116139500.7930762
2,4, 1, 4, 0,14,20.00,30.00,Wednesday
9,107729917.86293122
2,4, 1, 4, 0,14,30.00,40.00,Wednesday
9,120178179.33842821
2,4, 1, 4, 0,14,40.00,50.00,Wednesday
9,101447891.21611471
2,4, 1, 4, 0,14,50.00,60.00,Wednesday
9,113263659.40951832
2,4, 1, 4, 0,15, 0.00,10.00,Wednesday
9,115216910.9293887
2,4, 1, 4, 0,15,10.00,20.00,Wednesday
9,110222569.60593079
2,4, 1, 4, 0,15,20.00,30.00,Wednesday
9,117124130.05992012
2,4, 1, 4, 0,15,30.00,40.00,Wednesday
9,115671127.7207557
2,4, 1, 4, 0,15,40.00,50.00,Wednesday