Program Version,EnergyPlus, Version 23.2.0-7636e6b3e9, YMD=2025.01.19 15:45
1,5,Environment Title[],Latitude[deg],Longitude[deg],Time Zone[],Elevation[m]
2,8,Day of Simulation[],Month[],Day of Month[],DST Indicator[1=yes 0=no],Hour[],StartMinute[],EndMinute[],DayType
3,5,Cumulative Day of Simulation[],Month[],Day of Month[],DST Indicator[1=yes 0=no],DayType  ! When Daily Report Variables Requested
4,2,Cumulative Days of Simulation[],Month[]  ! When Monthly Report Variables Requested
5,1,Cumulative Days of Simulation[] ! When Run Period Report Variables Requested
6,1,Calendar Year of Simulation[] ! When Annual Report Variables Requested
8,1,Electricity:Facility [J] !TimeStep
End of Data Dictionary
1,RUN PERIOD 1,  46.80, -71.38,  -5.00,  74.40
2,1, 1, 1, 0, 1, 0.00,10.00,Sunday
8,32593441.043862883
2,1, 1, 1, 0, 1,10.00,20.00,Sunday
8,31072652.559139527
2,1, 1, 1, 0, 1,20.00,30.00,Sunday
8,28884045.302860226
2,1, 1, 1, 0, 1,30.00,40.00,Sunday
8,26865870.628975715
2,1, 1, 1, 0, 1,40.00,50.00,Sunday
8,23889666.54179431
2,1, 1, 1, 0, 1,50.00,60.00,Sunday
8,20785931.192155667
2,1, 1, 1, 0, 2, 0.00,10.00,Sunday
8,21374242.385511566
2,1, 1, 1, 0, 2,10.00,20.00,Sunday
8,21212423.084429823
2,1, 1, 1, 0, 2,20.00,30.00,Sunday
8,20430638.82043392
2,1, 1, 1, 0, 2,30.00,40.00,Sunday
8,19472949.67159071
2,1, 1, 1, 0, 2,40.00,50.00,Sunday
8,18717073.291014016
2,1, 1, 1, 0, 2,50.00,60.00,Sunday
8,18197681.501615733
2,1, 1, 1, 0, 3, 0.00,10.00,Sunday
8,18856716.88792064
2,1, 1, 1, 0, 3,10.00,20.00,Sunday
8,18712388.77654769
2,1, 1, 1, 0, 3,20.00,30.00,Sunday
8,18788124.706093285
2,1, 1, 1, 0, 3,30.00,40.00,Sunday
8,19058617.987351872
2,1, 1, 1, 0, 3,40.00,50.00,Sunday
8,19244887.398936737
2,1, 1, 1, 0, 3,50.00,60.00,Sunday
8,18933395.672741104
2,1, 1, 1, 0, 4, 0.00,10.00,Sunday
8,19193154.58967689
2,1, 1, 1, 0, 4,10.00,20.00,Sunday
8,19431425.990877062
2,1, 1, 1, 0, 4,20.00,30.00,Sunday
8,19669124.666307043
2,1, 1, 1, 0, 4,30.00,40.00,Sunday
8,19310442.383701514
2,1, 1, 1, 0, 4,40.00,50.00,Sunday
8,19328062.66341672
2,1, 1, 1, 0, 4,50.00,60.00,Sunday
8,19490459.546242945
2,1, 1, 1, 0, 5, 0.00,10.00,Sunday
8,21152845.019355662
2,1, 1, 1, 0, 5,10.00,20.00,Sunday
8,22061864.37264078
2,1, 1, 1, 0, 5,20.00,30.00,Sunday
8,23367159.935813356
2,1, 1, 1, 0, 5,30.00,40.00,Sunday
8,24804690.591658212
2,1, 1, 1, 0, 5,40.00,50.00,Sunday
8,26399971.00584998
2,1, 1, 1, 0, 5,50.00,60.00,Sunday
8,27304307.43801958
2,1, 1, 1, 0, 6, 0.00,10.00,Sunday
8,26019715.711842965
2,1, 1, 1, 0, 6,10.00,20.00,Sunday
8,24853779.914130267
2,1, 1, 1, 0, 6,20.00,30.00,Sunday
8,23880553.42866095
2,1, 1, 1, 0, 6,30.00,40.00,Sunday
8,22159392.789019145
2,1, 1, 1, 0, 6,40.00,50.00,Sunday
8,20876141.751177613
2,1, 1, 1, 0, 6,50.00,60.00,Sunday
8,19708329.309956826
2,1, 1, 1, 0, 7, 0.00,10.00,Sunday
8,20926660.387544256
2,1, 1, 1, 0, 7,10.00,20.00,Sunday
8,21327476.287605364
2,1, 1, 1, 0, 7,20.00,30.00,Sunday
8,22168071.28438604
2,1, 1, 1, 0, 7,30.00,40.00,Sunday
8,23130649.94000401
2,1, 1, 1, 0, 7,40.00,50.00,Sunday
8,24317973.154476255
2,1, 1, 1, 0, 7,50.00,60.00,Sunday
8,24710927.80399172
2,1, 1, 1, 0, 8, 0.00,10.00,Sunday
8,23892765.860423647
2,1, 1, 1, 0, 8,10.00,20.00,Sunday
8,23162685.24743662
2,1, 1, 1, 0, 8,20.00,30.00,Sunday
8,22671214.047220107
2,1, 1, 1, 0, 8,30.00,40.00,Sunday
8,21128772.76463157
2,1, 1, 1, 0, 8,40.00,50.00,Sunday
8,19890669.447180808
2,1, 1, 1, 0, 8,50.00,60.00,Sunday
8,18632348.0285987
2,1, 1, 1, 0, 9, 0.00,10.00,Sunday
8,17885018.149969004
2,1, 1, 1, 0, 9,10.00,20.00,Sunday
8,16697373.613351328
2,1, 1, 1, 0, 9,20.00,30.00,Sunday
8,16046189.960636651
2,1, 1, 1, 0, 9,30.00,40.00,Sunday
8,15652650.50607899
2,1, 1, 1, 0, 9,40.00,50.00,Sunday
8,15593730.556087343
2,1, 1, 1, 0, 9,50.00,60.00,Sunday
8,14743929.590290874
2,1, 1, 1, 0,10, 0.00,10.00,Sunday
8,58283567.04877909
2,1, 1, 1, 0,10,10.00,20.00,Sunday
8,28301292.73688382
2,1, 1, 1, 0,10,20.00,30.00,Sunday
8,34394657.50375028
2,1, 1, 1, 0,10,30.00,40.00,Sunday
8,27109754.772581596
2,1, 1, 1, 0,10,40.00,50.00,Sunday
8,27057520.05063891
2,1, 1, 1, 0,10,50.00,60.00,Sunday
8,28444620.450027015
2,1, 1, 1, 0,11, 0.00,10.00,Sunday
8,68410865.50947933
2,1, 1, 1, 0,11,10.00,20.00,Sunday
8,51918829.409637004
2,1, 1, 1, 0,11,20.00,30.00,Sunday
8,36668477.16217524
2,1, 1, 1, 0,11,30.00,40.00,Sunday
8,41840177.338566326
2,1, 1, 1, 0,11,40.00,50.00,Sunday
8,38031872.99617389
2,1, 1, 1, 0,11,50.00,60.00,Sunday
8,37992737.60335851
2,1, 1, 1, 0,12, 0.00,10.00,Sunday
8,92080658.94180575
2,1, 1, 1, 0,12,10.00,20.00,Sunday
8,90292460.70771484
2,1, 1, 1, 0,12,20.00,30.00,Sunday
8,89140547.36581695
2,1, 1, 1, 0,12,30.00,40.00,Sunday
8,87728973.72540687
2,1, 1, 1, 0,12,40.00,50.00,Sunday
8,88000205.91861886
2,1, 1, 1, 0,12,50.00,60.00,Sunday
8,87688401.27824129
2,1, 1, 1, 0,13, 0.00,10.00,Sunday
8,86714537.76011431
2,1, 1, 1, 0,13,10.00,20.00,Sunday
8,87881283.50343724
2,1, 1, 1, 0,13,20.00,30.00,Sunday
8,89375459.95659703
2,1, 1, 1, 0,13,30.00,40.00,Sunday
8,90506022.72639546
2,1, 1, 1, 0,13,40.00,50.00,Sunday
8,91671422.32556012
2,1, 1, 1, 0,13,50.00,60.00,Sunday
8,92679657.06595847
2,1, 1, 1, 0,14, 0.00,10.00,Sunday
8,92468476.857496
2,1, 1, 1, 0,14,10.00,20.00,Sunday
8,91646706.77007532
2,1, 1, 1, 0,14,20.00,30.00,Sunday
8,91343299.51420341
2,1, 1, 1, 0,14,30.00,40.00,Sunday
8,91748893.89279835
2,1, 1, 1, 0,14,40.00,50.00,Sunday
8,90764202.35354632
2,1, 1, 1, 0,14,50.00,60.00,Sunday
8,90545797.71646295
2,1, 1, 1, 0,15, 0.00,10.00,Sunday
8,91602758.84622744
2,1, 1, 1, 0,15,10.00,20.00,Sunday
8,91924004.78552553
2,1, 1, 1, 0,15,20.00,30.00,Sunday
8,93099636.48066853
2,1, 1, 1, 0,15,30.00,40.00,Sunday
8,94850676.3085995
2,1, 1, 1, 0,15,40.00,50.00,Sunday
8,95652252.1512428
2,1, 1, 1, 0,15,50.00,60.00,Sunday
8,97231614.75135814
2,1, 1, 1, 0,16, 0.00,10.00,Sunday
8,97602753.00400415
2,1, 1, 1, 0,16,10.00,20.00,Sunday
8,98159233.22817817
2,1, 1, 1, 0,16,20.00,30.00,Sunday
8,98792783.93655545
2,1, 1, 1, 0,16,30.00,40.00,Sunday
8,99519921.46966326
2,1, 1, 1, 0,16,40.00,50.00,Sunday
8,100236245.3758889
2,1, 1, 1, 0,16,50.00,60.00,Sunday
8,101146092.99001233
2,1, 1, 1, 0,17, 0.00,10.00,Sunday
8,104403434.74736491
2,1, 1, 1, 0,17,10.00,20.00,Sunday
8,107093548.46782699
2,1, 1, 1, 0,17,20.00,30.00,Sunday
8,109493629.26778428
2,1, 1, 1, 0,17,30.00,40.00,Sunday
8,112009787.51432134
2,1, 1, 1, 0,17,40.00,50.00,Sunday
8,114346279.24794444
2,1, 1, 1, 0,17,50.00,60.00,Sunday
8,116614000.96405444
2,1, 1, 1, 0,18, 0.00,10.00,Sunday
8,116371656.59244299
2,1, 1, 1, 0,18,10.00,20.00,Sunday
8,115642340.24075744
2,1, 1, 1, 0,18,20.00,30.00,Sunday
8,114340966.6033118
2,1, 1, 1, 0,18,30.00,40.00,Sunday
8,113568522.6877717
2,1, 1, 1, 0,18,40.00,50.00,Sunday
8,112964449.97101635
2,1, 1, 1, 0,18,50.00,60.00,Sunday
8,112036032.74708726
2,1, 1, 1, 0,19, 0.00,10.00,Sunday
8,108838931.1824029
2,1, 1, 1, 0,19,10.00,20.00,Sunday
8,109097334.34905605
2,1, 1, 1, 0,19,20.00,30.00,Sunday
8,109497407.77931474
2,1, 1, 1, 0,19,30.00,40.00,Sunday
8,108869543.1130836
2,1, 1, 1, 0,19,40.00,50.00,Sunday
8,109284304.92658468
2,1, 1, 1, 0,19,50.00,60.00,Sunday
8,109225870.92581154
2,1, 1, 1, 0,20, 0.00,10.00,Sunday
8,10410245.1023067
2,1, 1, 1, 0,20,10.00,20.00,Sunday
8,11700665.137533313
2,1, 1, 1, 0,20,20.00,30.00,Sunday
8,13452607.988585519
2,1, 1, 1, 0,20,30.00,40.00,Sunday
8,15196230.663725985
2,1, 1, 1, 0,20,40.00,50.00,Sunday
8,22405768.4875302
2,1, 1, 1, 0,20,50.00,60.00,Sunday
8,33689898.54503403
2,1, 1, 1, 0,21, 0.00,10.00,Sunday
8,27721490.803551666
2,1, 1, 1, 0,21,10.00,20.00,Sunday
8,32995128.48334279
2,1, 1, 1, 0,21,20.00,30.00,Sunday
8,34340240.90525009
2,1, 1, 1, 0,21,30.00,40.00,Sunday
8,35872062.857311875
2,1, 1, 1, 0,21,40.00,50.00,Sunday
8,37338488.7008298
2,1, 1, 1, 0,21,50.00,60.00,Sunday
8,39281852.87696183
2,1, 1, 1, 0,22, 0.00,10.00,Sunday
8,40541133.65109898
2,1, 1, 1, 0,22,10.00,20.00,Sunday
8,40573401.481116645
2,1, 1, 1, 0,22,20.00,30.00,Sunday
8,40147704.808737144
2,1, 1, 1, 0,22,30.00,40.00,Sunday
8,40229961.484840505
2,1, 1, 1, 0,22,40.00,50.00,Sunday
8,39124713.63837638
2,1, 1, 1, 0,22,50.00,60.00,Sunday
8,38532162.247991346
2,1, 1, 1, 0,23, 0.00,10.00,Sunday
8,40238385.48405005
2,1, 1, 1, 0,23,10.00,20.00,Sunday
8,41490777.3774377
2,1, 1, 1, 0,23,20.00,30.00,Sunday
8,41429465.183395274
2,1, 1, 1, 0,23,30.00,40.00,Sunday
8,41897830.91809914
2,1, 1, 1, 0,23,40.00,50.00,Sunday
8,42333182.728317015
2,1, 1, 1, 0,23,50.00,60.00,Sunday
8,43305553.45167639
2,1, 1, 1, 0,24, 0.00,10.00,Sunday
8,42482060.307205155
2,1, 1, 1, 0,24,10.00,20.00,Sunday
8,41781358.660718
2,1, 1, 1, 0,24,20.00,30.00,Sunday
8,41008464.6001739
2,1, 1, 1, 0,24,30.00,40.00,Sunday
8,40791839.95016817
2,1, 1, 1, 0,24,40.00,50.00,Sunday
8,39443526.894228615
2,1, 1, 1, 0,24,50.00,60.00,Sunday
8,38654183.133271225
2,2, 1, 2, 0, 1, 0.00,10.00,Monday
8,39829761.80082281
2,2, 1, 2, 0, 1,10.00,20.00,Monday
8,41386813.592415646
2,2, 1, 2, 0, 1,20.00,30.00,Monday
8,41780633.45884671
2,2, 1, 2, 0, 1,30.00,40.00,Monday
8,42725281.373296425
2,2, 1, 2, 0, 1,40.00,50.00,Monday
8,43659117.897057526
2,2, 1, 2, 0, 1,50.00,60.00,Monday
8,45145724.55204772
2,2, 1, 2, 0, 2, 0.00,10.00,Monday
8,42073104.43116725
2,2, 1, 2, 0, 2,10.00,20.00,Monday
8,39512191.80725492
2,2, 1, 2, 0, 2,20.00,30.00,Monday
8,36948599.75162815
2,2, 1, 2, 0, 2,30.00,40.00,Monday
8,34953572.86000308
2,2, 1, 2, 0, 2,40.00,50.00,Monday
8,31833921.059699208
2,2, 1, 2, 0, 2,50.00,60.00,Monday
8,29282656.688625578
2,2, 1, 2, 0, 3, 0.00,10.00,Monday
8,29323045.220300786
2,2, 1, 2, 0, 3,10.00,20.00,Monday
8,29889168.571152966
2,2, 1, 2, 0, 3,20.00,30.00,Monday
8,29317751.938157134
2,2, 1, 2, 0, 3,30.00,40.00,Monday
8,29308769.36797204
2,2, 1, 2, 0, 3,40.00,50.00,Monday
8,29299058.8256903
2,2, 1, 2, 0, 3,50.00,60.00,Monday
8,29813483.091054007
2,2, 1, 2, 0, 4, 0.00,10.00,Monday
8,28092727.20171757
2,2, 1, 2, 0, 4,10.00,20.00,Monday
8,26806972.037092995
2,2, 1, 2, 0, 4,20.00,30.00,Monday
8,25563555.121961996
2,2, 1, 2, 0, 4,30.00,40.00,Monday
8,24744230.72603824
2,2, 1, 2, 0, 4,40.00,50.00,Monday
8,23233241.84600006
2,2, 1, 2, 0, 4,50.00,60.00,Monday
8,21876805.08334773
2,2, 1, 2, 0, 5, 0.00,10.00,Monday
8,23022176.903687358
2,2, 1, 2, 0, 5,10.00,20.00,Monday
8,24447669.832664873
2,2, 1, 2, 0, 5,20.00,30.00,Monday
8,25391565.487352725
2,2, 1, 2, 0, 5,30.00,40.00,Monday
8,26183550.626257446
2,2, 1, 2, 0, 5,40.00,50.00,Monday
8,27168942.220883127
2,2, 1, 2, 0, 5,50.00,60.00,Monday
8,28392989.284843504
2,2, 1, 2, 0, 6, 0.00,10.00,Monday
8,30234701.288081165
2,2, 1, 2, 0, 6,10.00,20.00,Monday
8,31787800.944630034
2,2, 1, 2, 0, 6,20.00,30.00,Monday
8,33603632.20856607
2,2, 1, 2, 0, 6,30.00,40.00,Monday
8,35611815.205008104
2,2, 1, 2, 0, 6,40.00,50.00,Monday
8,37470407.757025994
2,2, 1, 2, 0, 6,50.00,60.00,Monday
8,38855626.865759246
2,2, 1, 2, 0, 7, 0.00,10.00,Monday
8,37367873.85725782
2,2, 1, 2, 0, 7,10.00,20.00,Monday
8,36152216.92168017
2,2, 1, 2, 0, 7,20.00,30.00,Monday
8,34935257.84185574
2,2, 1, 2, 0, 7,30.00,40.00,Monday
8,33190980.664617196
2,2, 1, 2, 0, 7,40.00,50.00,Monday
8,31821824.91930882
2,2, 1, 2, 0, 7,50.00,60.00,Monday
8,30626919.467991468
2,2, 1, 2, 0, 8, 0.00,10.00,Monday
8,87629884.27869058
2,2, 1, 2, 0, 8,10.00,20.00,Monday
8,23319609.875611108
2,2, 1, 2, 0, 8,20.00,30.00,Monday
8,55801808.873096794
2,2, 1, 2, 0, 8,30.00,40.00,Monday
8,55452944.28353923
2,2, 1, 2, 0, 8,40.00,50.00,Monday
8,53205836.11169158
2,2, 1, 2, 0, 8,50.00,60.00,Monday
8,53460317.5345669
2,2, 1, 2, 0, 9, 0.00,10.00,Monday
8,101996805.89622447
2,2, 1, 2, 0, 9,10.00,20.00,Monday
8,84745937.25607575
2,2, 1, 2, 0, 9,20.00,30.00,Monday
8,71270063.72184406
2,2, 1, 2, 0, 9,30.00,40.00,Monday
8,70265984.40707687
2,2, 1, 2, 0, 9,40.00,50.00,Monday
8,68310063.79206674
2,2, 1, 2, 0, 9,50.00,60.00,Monday
8,68156181.42813617
2,2, 1, 2, 0,10, 0.00,10.00,Monday
8,111875835.86439532
2,2, 1, 2, 0,10,10.00,20.00,Monday
8,110895370.33373158
2,2, 1, 2, 0,10,20.00,30.00,Monday
8,111146088.49709082
2,2, 1, 2, 0,10,30.00,40.00,Monday
8,111813105.21854587
2,2, 1, 2, 0,10,40.00,50.00,Monday
8,112483277.67669813
2,2, 1, 2, 0,10,50.00,60.00,Monday
8,113226880.24933247
2,2, 1, 2, 0,11, 0.00,10.00,Monday
8,110888949.19004253
2,2, 1, 2, 0,11,10.00,20.00,Monday
8,111347450.67183113
2,2, 1, 2, 0,11,20.00,30.00,Monday
8,112178952.87787956
2,2, 1, 2, 0,11,30.00,40.00,Monday
8,113105233.92533508
2,2, 1, 2, 0,11,40.00,50.00,Monday
8,114033257.2521191
2,2, 1, 2, 0,11,50.00,60.00,Monday
8,115072612.4240771
2,2, 1, 2, 0,12, 0.00,10.00,Monday
8,113915704.76111735
2,2, 1, 2, 0,12,10.00,20.00,Monday
8,113425687.18672653
2,2, 1, 2, 0,12,20.00,30.00,Monday
8,113077934.19969948
2,2, 1, 2, 0,12,30.00,40.00,Monday
8,112723969.40527216
2,2, 1, 2, 0,12,40.00,50.00,Monday
8,112377660.42984608
2,2, 1, 2, 0,12,50.00,60.00,Monday
8,112071305.56016774
2,2, 1, 2, 0,13, 0.00,10.00,Monday
8,112951329.51597123
2,2, 1, 2, 0,13,10.00,20.00,Monday
8,113663594.43396594
2,2, 1, 2, 0,13,20.00,30.00,Monday
8,114540793.21058084
2,2, 1, 2, 0,13,30.00,40.00,Monday
8,115407357.13606171
2,2, 1, 2, 0,13,40.00,50.00,Monday
8,116275376.51027808
2,2, 1, 2, 0,13,50.00,60.00,Monday
8,117151596.0929059
2,2, 1, 2, 0,14, 0.00,10.00,Monday
8,116262300.24080543
2,2, 1, 2, 0,14,10.00,20.00,Monday
8,115539506.30108099
2,2, 1, 2, 0,14,20.00,30.00,Monday
8,114866419.46369898
2,2, 1, 2, 0,14,30.00,40.00,Monday
8,114273275.79967406
2,2, 1, 2, 0,14,40.00,50.00,Monday
8,113716338.99161977
2,2, 1, 2, 0,14,50.00,60.00,Monday
8,113177532.31338498
2,2, 1, 2, 0,15, 0.00,10.00,Monday
8,116455145.97629708
2,2, 1, 2, 0,15,10.00,20.00,Monday
8,119839996.32339227
2,2, 1, 2, 0,15,20.00,30.00,Monday
8,123291652.94644284
2,2, 1, 2, 0,15,30.00,40.00,Monday
8,126778883.10011002
2,2, 1, 2, 0,15,40.00,50.00,Monday
8,130314862.29837222
2,2, 1, 2, 0,15,50.00,60.00,Monday
8,133902329.64203192
2,2, 1, 2, 0,16, 0.00,10.00,Monday
8,134429161.5026725
2,2, 1, 2, 0,16,10.00,20.00,Monday
8,134891724.2782165
2,2, 1, 2, 0,16,20.00,30.00,Monday
8,135321181.96891695
2,2, 1, 2, 0,16,30.00,40.00,Monday
8,135753308.07048112
2,2, 1, 2, 0,16,40.00,50.00,Monday
8,136181134.2098908
2,2, 1, 2, 0,16,50.00,60.00,Monday
8,136603932.93405214
2,2, 1, 2, 0,17, 0.00,10.00,Monday
8,136126841.78101882
2,2, 1, 2, 0,17,10.00,20.00,Monday
8,135674192.74020475
2,2, 1, 2, 0,17,20.00,30.00,Monday
8,135097251.3691579
2,2, 1, 2, 0,17,30.00,40.00,Monday
8,134467164.76283887
2,2, 1, 2, 0,17,40.00,50.00,Monday
8,133784538.38844061
2,2, 1, 2, 0,17,50.00,60.00,Monday
8,132480791.70208438
2,2, 1, 2, 0,18, 0.00,10.00,Monday
8,135087522.80836716
2,2, 1, 2, 0,18,10.00,20.00,Monday
8,137767341.89070842
2,2, 1, 2, 0,18,20.00,30.00,Monday
8,140328000.33861172
2,2, 1, 2, 0,18,30.00,40.00,Monday
8,142882367.8045321
2,2, 1, 2, 0,18,40.00,50.00,Monday
8,145451102.82718718
2,2, 1, 2, 0,18,50.00,60.00,Monday
8,148037572.86717784
2,2, 1, 2, 0,19, 0.00,10.00,Monday
8,145965455.36505094
2,2, 1, 2, 0,19,10.00,20.00,Monday
8,143947796.86710846
2,2, 1, 2, 0,19,20.00,30.00,Monday
8,141449540.59984103
2,2, 1, 2, 0,19,30.00,40.00,Monday
8,139566542.26778203
2,2, 1, 2, 0,19,40.00,50.00,Monday
8,137583641.26869574
2,2, 1, 2, 0,19,50.00,60.00,Monday
8,135353888.50093517
2,2, 1, 2, 0,20, 0.00,10.00,Monday
8,113462520.28215498
2,2, 1, 2, 0,20,10.00,20.00,Monday
8,119129067.5503809
2,2, 1, 2, 0,20,20.00,30.00,Monday
8,124874472.52045539
2,2, 1, 2, 0,20,30.00,40.00,Monday
8,129002507.65670802
2,2, 1, 2, 0,20,40.00,50.00,Monday
8,131627826.3571713
2,2, 1, 2, 0,20,50.00,60.00,Monday
8,134286114.73363167
2,2, 1, 2, 0,21, 0.00,10.00,Monday
8,135396507.8250433
2,2, 1, 2, 0,21,10.00,20.00,Monday
8,137747026.96975544
2,2, 1, 2, 0,21,20.00,30.00,Monday
8,138827199.3764083
2,2, 1, 2, 0,21,30.00,40.00,Monday
8,139880838.36211723
2,2, 1, 2, 0,21,40.00,50.00,Monday
8,141480050.8401715
2,2, 1, 2, 0,21,50.00,60.00,Monday
8,142059455.16002524
2,2, 1, 2, 0,22, 0.00,10.00,Monday
8,17218412.87085705
2,2, 1, 2, 0,22,10.00,20.00,Monday
8,19782093.124041624
2,2, 1, 2, 0,22,20.00,30.00,Monday
8,25621558.268879723
2,2, 1, 2, 0,22,30.00,40.00,Monday
8,28923361.694802903
2,2, 1, 2, 0,22,40.00,50.00,Monday
8,35431426.37385824
2,2, 1, 2, 0,22,50.00,60.00,Monday
8,35124053.491554625
2,2, 1, 2, 0,23, 0.00,10.00,Monday
8,39587559.12670736
2,2, 1, 2, 0,23,10.00,20.00,Monday
8,43467803.34462612
2,2, 1, 2, 0,23,20.00,30.00,Monday
8,46047378.94735155
2,2, 1, 2, 0,23,30.00,40.00,Monday
8,47461239.213725604
2,2, 1, 2, 0,23,40.00,50.00,Monday
8,49307249.36490129
2,2, 1, 2, 0,23,50.00,60.00,Monday
8,51066362.576658405
2,2, 1, 2, 0,24, 0.00,10.00,Monday
8,55692218.81972673
2,2, 1, 2, 0,24,10.00,20.00,Monday
8,57208664.97449357
2,2, 1, 2, 0,24,20.00,30.00,Monday
8,58867653.70949497
2,2, 1, 2, 0,24,30.00,40.00,Monday
8,60484507.98778626
2,2, 1, 2, 0,24,40.00,50.00,Monday
8,62599941.989681944
2,2, 1, 2, 0,24,50.00,60.00,Monday
8,63574912.330069676
2,3, 1, 3, 0, 1, 0.00,10.00,Tuesday
8,66914984.21877064
2,3, 1, 3, 0, 1,10.00,20.00,Tuesday
8,69324189.60826375
2,3, 1, 3, 0, 1,20.00,30.00,Tuesday
8,72049133.3604999
2,3, 1, 3, 0, 1,30.00,40.00,Tuesday
8,73775733.51974389
2,3, 1, 3, 0, 1,40.00,50.00,Tuesday
8,76029939.37766059
2,3, 1, 3, 0, 1,50.00,60.00,Tuesday
8,78362339.62495291
2,3, 1, 3, 0, 2, 0.00,10.00,Tuesday
8,76186997.16425863
2,3, 1, 3, 0, 2,10.00,20.00,Tuesday
8,72541378.49789383
2,3, 1, 3, 0, 2,20.00,30.00,Tuesday
8,69243953.79122645
2,3, 1, 3, 0, 2,30.00,40.00,Tuesday
8,65975837.2749413
2,3, 1, 3, 0, 2,40.00,50.00,Tuesday
8,62946599.354170464
2,3, 1, 3, 0, 2,50.00,60.00,Tuesday
8,59013006.439558215
2,3, 1, 3, 0, 3, 0.00,10.00,Tuesday
8,59798191.06578124
2,3, 1, 3, 0, 3,10.00,20.00,Tuesday
8,60308040.413955145
2,3, 1, 3, 0, 3,20.00,30.00,Tuesday
8,61000061.43904577
2,3, 1, 3, 0, 3,30.00,40.00,Tuesday
8,60877451.722914964
2,3, 1, 3, 0, 3,40.00,50.00,Tuesday
8,61197487.56747899
2,3, 1, 3, 0, 3,50.00,60.00,Tuesday
8,61623864.330174685
2,3, 1, 3, 0, 4, 0.00,10.00,Tuesday
8,63899466.37032426
2,3, 1, 3, 0, 4,10.00,20.00,Tuesday
8,65244105.89931563
2,3, 1, 3, 0, 4,20.00,30.00,Tuesday
8,67030545.30765142
2,3, 1, 3, 0, 4,30.00,40.00,Tuesday
8,68962191.40632814
2,3, 1, 3, 0, 4,40.00,50.00,Tuesday
8,71109151.89186841
2,3, 1, 3, 0, 4,50.00,60.00,Tuesday
8,72532927.95616347
2,3, 1, 3, 0, 5, 0.00,10.00,Tuesday
8,73638463.26131503
2,3, 1, 3, 0, 5,10.00,20.00,Tuesday
8,74680288.03352523
2,3, 1, 3, 0, 5,20.00,30.00,Tuesday
8,75869273.93691242
2,3, 1, 3, 0, 5,30.00,40.00,Tuesday
8,76328283.58138119
2,3, 1, 3, 0, 5,40.00,50.00,Tuesday
8,77215977.4011237
2,3, 1, 3, 0, 5,50.00,60.00,Tuesday
8,78236350.21920241
2,3, 1, 3, 0, 6, 0.00,10.00,Tuesday
8,78413516.20575759
2,3, 1, 3, 0, 6,10.00,20.00,Tuesday
8,77704686.63187265
2,3, 1, 3, 0, 6,20.00,30.00,Tuesday
8,77455617.5499122
2,3, 1, 3, 0, 6,30.00,40.00,Tuesday
8,77264503.93911524
2,3, 1, 3, 0, 6,40.00,50.00,Tuesday
8,77220387.05269063
2,3, 1, 3, 0, 6,50.00,60.00,Tuesday
8,76457013.61596389
2,3, 1, 3, 0, 7, 0.00,10.00,Tuesday
8,75960028.13691628
2,3, 1, 3, 0, 7,10.00,20.00,Tuesday
8,75479182.88265043
2,3, 1, 3, 0, 7,20.00,30.00,Tuesday
8,75126060.28896882
2,3, 1, 3, 0, 7,30.00,40.00,Tuesday
8,74063493.67848772
2,3, 1, 3, 0, 7,40.00,50.00,Tuesday
8,73415998.7352036
2,3, 1, 3, 0, 7,50.00,60.00,Tuesday
8,72901452.3776381
2,3, 1, 3, 0, 8, 0.00,10.00,Tuesday
8,132599105.31724332
2,3, 1, 3, 0, 8,10.00,20.00,Tuesday
8,100276754.5913316
2,3, 1, 3, 0, 8,20.00,30.00,Tuesday
8,103022693.8630676
2,3, 1, 3, 0, 8,30.00,40.00,Tuesday
8,97667117.19403827
2,3, 1, 3, 0, 8,40.00,50.00,Tuesday
8,95799650.67340818
2,3, 1, 3, 0, 8,50.00,60.00,Tuesday
8,94086600.5383728
2,3, 1, 3, 0, 9, 0.00,10.00,Tuesday
8,130534281.80058393
2,3, 1, 3, 0, 9,10.00,20.00,Tuesday
8,130854951.21411909
2,3, 1, 3, 0, 9,20.00,30.00,Tuesday
8,96950643.7467254
2,3, 1, 3, 0, 9,30.00,40.00,Tuesday
8,108249177.71283272
2,3, 1, 3, 0, 9,40.00,50.00,Tuesday
8,102781655.44712321
2,3, 1, 3, 0, 9,50.00,60.00,Tuesday
8,101372352.18135625
2,3, 1, 3, 0,10, 0.00,10.00,Tuesday
8,177934516.2284624
2,3, 1, 3, 0,10,10.00,20.00,Tuesday
8,172692788.08447868
2,3, 1, 3, 0,10,20.00,30.00,Tuesday
8,168881396.99190825
2,3, 1, 3, 0,10,30.00,40.00,Tuesday
8,165717157.87722215
2,3, 1, 3, 0,10,40.00,50.00,Tuesday
8,162659640.99134433
2,3, 1, 3, 0,10,50.00,60.00,Tuesday
8,159741356.4019723
2,3, 1, 3, 0,11, 0.00,10.00,Tuesday
8,155102309.60513985
2,3, 1, 3, 0,11,10.00,20.00,Tuesday
8,155706628.18491766
2,3, 1, 3, 0,11,20.00,30.00,Tuesday
8,156911967.7557094
2,3, 1, 3, 0,11,30.00,40.00,Tuesday
8,158306335.58319077
2,3, 1, 3, 0,11,40.00,50.00,Tuesday
8,159776097.54648706
2,3, 1, 3, 0,11,50.00,60.00,Tuesday
8,161401728.5277601
2,3, 1, 3, 0,12, 0.00,10.00,Tuesday
8,157553611.1336208
2,3, 1, 3, 0,12,10.00,20.00,Tuesday
8,156481144.00156233
2,3, 1, 3, 0,12,20.00,30.00,Tuesday
8,155678268.21167308
2,3, 1, 3, 0,12,30.00,40.00,Tuesday
8,154965178.7937023
2,3, 1, 3, 0,12,40.00,50.00,Tuesday
8,154327343.49404475
2,3, 1, 3, 0,12,50.00,60.00,Tuesday
8,153851158.2783265
2,3, 1, 3, 0,13, 0.00,10.00,Tuesday
8,153411320.05811054
2,3, 1, 3, 0,13,10.00,20.00,Tuesday
8,153610853.83866927
2,3, 1, 3, 0,13,20.00,30.00,Tuesday
8,154009498.03657755
2,3, 1, 3, 0,13,30.00,40.00,Tuesday
8,154560277.98938665
2,3, 1, 3, 0,13,40.00,50.00,Tuesday
8,155152911.481486
2,3, 1, 3, 0,13,50.00,60.00,Tuesday
8,155822782.69307616
2,3, 1, 3, 0,14, 0.00,10.00,Tuesday
8,154915575.01001194
2,3, 1, 3, 0,14,10.00,20.00,Tuesday
8,153099191.52612275
2,3, 1, 3, 0,14,20.00,30.00,Tuesday
8,151277165.11912885
2,3, 1, 3, 0,14,30.00,40.00,Tuesday
8,149281040.48409405
2,3, 1, 3, 0,14,40.00,50.00,Tuesday
8,147221702.47074133
2,3, 1, 3, 0,14,50.00,60.00,Tuesday
8,145131704.4606452
2,3, 1, 3, 0,15, 0.00,10.00,Tuesday
8,147530790.26434472
2,3, 1, 3, 0,15,10.00,20.00,Tuesday
8,148894570.79485965
2,3, 1, 3, 0,15,20.00,30.00,Tuesday
8,150210774.33997867
2,3, 1, 3, 0,15,30.00,40.00,Tuesday
8,151623815.2597424
2,3, 1, 3, 0,15,40.00,50.00,Tuesday
8,153080349.0913686
2,3, 1, 3, 0,15,50.00,60.00,Tuesday
8,154570679.8388335
2,3, 1, 3, 0,16, 0.00,10.00,Tuesday
8,157720779.5961268
2,3, 1, 3, 0,16,10.00,20.00,Tuesday
8,159608150.92356616
2,3, 1, 3, 0,16,20.00,30.00,Tuesday
8,161476783.84556866
2,3, 1, 3, 0,16,30.00,40.00,Tuesday
8,163589607.23718148
2,3, 1, 3, 0,16,40.00,50.00,Tuesday
8,165786265.54736736
2,3, 1, 3, 0,16,50.00,60.00,Tuesday
8,168044138.71753392
2,3, 1, 3, 0,17, 0.00,10.00,Tuesday
8,171702266.56908444
2,3, 1, 3, 0,17,10.00,20.00,Tuesday
8,173512319.87303573
2,3, 1, 3, 0,17,20.00,30.00,Tuesday
8,174669818.3703144
2,3, 1, 3, 0,17,30.00,40.00,Tuesday
8,175633927.20235336
2,3, 1, 3, 0,17,40.00,50.00,Tuesday
8,176516799.96750125
2,3, 1, 3, 0,17,50.00,60.00,Tuesday
8,176759998.7682724
2,3, 1, 3, 0,18, 0.00,10.00,Tuesday
8,177951444.12022877
2,3, 1, 3, 0,18,10.00,20.00,Tuesday
8,178147409.37953147
2,3, 1, 3, 0,18,20.00,30.00,Tuesday
8,177952618.1881666
2,3, 1, 3, 0,18,30.00,40.00,Tuesday
8,177690613.93328795
2,3, 1, 3, 0,18,40.00,50.00,Tuesday
8,177361938.9657053
2,3, 1, 3, 0,18,50.00,60.00,Tuesday
8,176980808.6309654
2,3, 1, 3, 0,19, 0.00,10.00,Tuesday
8,176540755.2841432
2,3, 1, 3, 0,19,10.00,20.00,Tuesday
8,175548533.1860289
2,3, 1, 3, 0,19,20.00,30.00,Tuesday
8,174153884.665466
2,3, 1, 3, 0,19,30.00,40.00,Tuesday
8,173385849.51647863
2,3, 1, 3, 0,19,40.00,50.00,Tuesday
8,172369423.9936816
2,3, 1, 3, 0,19,50.00,60.00,Tuesday
8,171192524.26543105
2,3, 1, 3, 0,20, 0.00,10.00,Tuesday
8,147121548.70554155
2,3, 1, 3, 0,20,10.00,20.00,Tuesday
8,156159542.33721438
2,3, 1, 3, 0,20,20.00,30.00,Tuesday
8,164535258.772803
2,3, 1, 3, 0,20,30.00,40.00,Tuesday
8,170169830.07045496
2,3, 1, 3, 0,20,40.00,50.00,Tuesday
8,174497514.8126381
2,3, 1, 3, 0,20,50.00,60.00,Tuesday
8,179127187.19002116
2,3, 1, 3, 0,21, 0.00,10.00,Tuesday
8,177737374.53300261
2,3, 1, 3, 0,21,10.00,20.00,Tuesday
8,177356602.03662175
2,3, 1, 3, 0,21,20.00,30.00,Tuesday
8,175588439.22582313
2,3, 1, 3, 0,21,30.00,40.00,Tuesday
8,174094091.2472251
2,3, 1, 3, 0,21,40.00,50.00,Tuesday
8,172845777.84054768
2,3, 1, 3, 0,21,50.00,60.00,Tuesday
8,170560256.38203827
2,3, 1, 3, 0,22, 0.00,10.00,Tuesday
8,19994918.63203347
2,3, 1, 3, 0,22,10.00,20.00,Tuesday
8,24363660.58744534
2,3, 1, 3, 0,22,20.00,30.00,Tuesday
8,40976699.49669814
2,3, 1, 3, 0,22,30.00,40.00,Tuesday
8,50499906.41110936
2,3, 1, 3, 0,22,40.00,50.00,Tuesday
8,58225650.44024371
2,3, 1, 3, 0,22,50.00,60.00,Tuesday
8,55562000.51894179
2,3, 1, 3, 0,23, 0.00,10.00,Tuesday
8,64086500.78178198
2,3, 1, 3, 0,23,10.00,20.00,Tuesday
8,67418100.06335099
2,3, 1, 3, 0,23,20.00,30.00,Tuesday
8,70150008.52294007
2,3, 1, 3, 0,23,30.00,40.00,Tuesday
8,71675049.5530911
2,3, 1, 3, 0,23,40.00,50.00,Tuesday
8,73606129.50295438
2,3, 1, 3, 0,23,50.00,60.00,Tuesday
8,75429871.95839085
2,3, 1, 3, 0,24, 0.00,10.00,Tuesday
8,79689384.19172549
2,3, 1, 3, 0,24,10.00,20.00,Tuesday
8,80678667.9358962
2,3, 1, 3, 0,24,20.00,30.00,Tuesday
8,81815123.4928039
2,3, 1, 3, 0,24,30.00,40.00,Tuesday
8,82895677.88048457
2,3, 1, 3, 0,24,40.00,50.00,Tuesday
8,84465671.06901866
2,3, 1, 3, 0,24,50.00,60.00,Tuesday
8,84880729.30778594
2,4, 1, 4, 0, 1, 0.00,10.00,Wednesday
8,86172392.37583663
2,4, 1, 4, 0, 1,10.00,20.00,Wednesday
8,86487773.48989154
2,4, 1, 4, 0, 1,20.00,30.00,Wednesday
8,87191002.08701098
2,4, 1, 4, 0, 1,30.00,40.00,Wednesday
8,86758023.0460187
2,4, 1, 4, 0, 1,40.00,50.00,Wednesday
8,86850528.2575488
2,4, 1, 4, 0, 1,50.00,60.00,Wednesday
8,86922692.91209245
2,4, 1, 4, 0, 2, 0.00,10.00,Wednesday
8,87500267.60040721
2,4, 1, 4, 0, 2,10.00,20.00,Wednesday
8,86531383.09131016
2,4, 1, 4, 0, 2,20.00,30.00,Wednesday
8,86042857.11240728
2,4, 1, 4, 0, 2,30.00,40.00,Wednesday
8,85540645.9027942
2,4, 1, 4, 0, 2,40.00,50.00,Wednesday
8,85576909.75357588
2,4, 1, 4, 0, 2,50.00,60.00,Wednesday
8,84495169.17428364
2,4, 1, 4, 0, 3, 0.00,10.00,Wednesday
8,84957760.56822042
2,4, 1, 4, 0, 3,10.00,20.00,Wednesday
8,85205530.33320585
2,4, 1, 4, 0, 3,20.00,30.00,Wednesday
8,85972039.82449876
2,4, 1, 4, 0, 3,30.00,40.00,Wednesday
8,85625860.48026432
2,4, 1, 4, 0, 3,40.00,50.00,Wednesday
8,85827602.63315482
2,4, 1, 4, 0, 3,50.00,60.00,Wednesday
8,86025442.12972409
2,4, 1, 4, 0, 4, 0.00,10.00,Wednesday
8,86975068.3155999
2,4, 1, 4, 0, 4,10.00,20.00,Wednesday
8,86687790.3087029
2,4, 1, 4, 0, 4,20.00,30.00,Wednesday
8,86934599.84202799
2,4, 1, 4, 0, 4,30.00,40.00,Wednesday
8,87218238.80924754
2,4, 1, 4, 0, 4,40.00,50.00,Wednesday
8,87935864.40570107
2,4, 1, 4, 0, 4,50.00,60.00,Wednesday
8,87660642.84944604
2,4, 1, 4, 0, 5, 0.00,10.00,Wednesday
8,87071866.23948951
2,4, 1, 4, 0, 5,10.00,20.00,Wednesday
8,86427012.809423
2,4, 1, 4, 0, 5,20.00,30.00,Wednesday
8,86085642.95937513
2,4, 1, 4, 0, 5,30.00,40.00,Wednesday
8,84857279.9247385
2,4, 1, 4, 0, 5,40.00,50.00,Wednesday
8,84102320.91261902
2,4, 1, 4, 0, 5,50.00,60.00,Wednesday
8,83445416.52367245
2,4, 1, 4, 0, 6, 0.00,10.00,Wednesday
8,85002809.55046712
2,4, 1, 4, 0, 6,10.00,20.00,Wednesday
8,85668872.58567092
2,4, 1, 4, 0, 6,20.00,30.00,Wednesday
8,86780368.11761557
2,4, 1, 4, 0, 6,30.00,40.00,Wednesday
8,88017249.5401665
2,4, 1, 4, 0, 6,40.00,50.00,Wednesday
8,89371088.4234107
2,4, 1, 4, 0, 6,50.00,60.00,Wednesday
8,90061288.67321984
2,4, 1, 4, 0, 7, 0.00,10.00,Wednesday
8,88685658.28629632
2,4, 1, 4, 0, 7,10.00,20.00,Wednesday
8,87347488.05094612
2,4, 1, 4, 0, 7,20.00,30.00,Wednesday
8,86144283.9627133
2,4, 1, 4, 0, 7,30.00,40.00,Wednesday
8,84223378.17056568
2,4, 1, 4, 0, 7,40.00,50.00,Wednesday
8,82717275.49582653
2,4, 1, 4, 0, 7,50.00,60.00,Wednesday
8,81424233.7217847
2,4, 1, 4, 0, 8, 0.00,10.00,Wednesday
8,143434781.0095162
2,4, 1, 4, 0, 8,10.00,20.00,Wednesday
8,113766155.46613522
2,4, 1, 4, 0, 8,20.00,30.00,Wednesday
8,116531590.75164098
2,4, 1, 4, 0, 8,30.00,40.00,Wednesday
8,113797673.41737694
2,4, 1, 4, 0, 8,40.00,50.00,Wednesday
8,113384539.38608432
2,4, 1, 4, 0, 8,50.00,60.00,Wednesday
8,113319075.84988137
2,4, 1, 4, 0, 9, 0.00,10.00,Wednesday
8,138436578.96830508
2,4, 1, 4, 0, 9,10.00,20.00,Wednesday
8,149453655.77806565
2,4, 1, 4, 0, 9,20.00,30.00,Wednesday
8,107995377.14577876
2,4, 1, 4, 0, 9,30.00,40.00,Wednesday
8,120018982.60106401
2,4, 1, 4, 0, 9,40.00,50.00,Wednesday
8,113254239.3168727
2,4, 1, 4, 0, 9,50.00,60.00,Wednesday
8,109235936.40573072
2,4, 1, 4, 0,10, 0.00,10.00,Wednesday
8,198742253.9903773
2,4, 1, 4, 0,10,10.00,20.00,Wednesday
8,198216039.9734373
2,4, 1, 4, 0,10,20.00,30.00,Wednesday
8,199119957.5608843
2,4, 1, 4, 0,10,30.00,40.00,Wednesday
8,200704190.87681708
2,4, 1, 4, 0,10,40.00,50.00,Wednesday
8,202459148.01469538
2,4, 1, 4, 0,10,50.00,60.00,Wednesday
8,204295869.326965
2,4, 1, 4, 0,11, 0.00,10.00,Wednesday
8,194910168.91161808
2,4, 1, 4, 0,11,10.00,20.00,Wednesday
8,190691704.02332562
2,4, 1, 4, 0,11,20.00,30.00,Wednesday
8,186965943.12933493
2,4, 1, 4, 0,11,30.00,40.00,Wednesday
8,183498178.28936258
2,4, 1, 4, 0,11,40.00,50.00,Wednesday
8,180113614.47073022
2,4, 1, 4, 0,11,50.00,60.00,Wednesday
8,176885157.751085
2,4, 1, 4, 0,12, 0.00,10.00,Wednesday
8,176831591.69329032
2,4, 1, 4, 0,12,10.00,20.00,Wednesday
8,179084759.66878533
2,4, 1, 4, 0,12,20.00,30.00,Wednesday
8,181654423.18317264
2,4, 1, 4, 0,12,30.00,40.00,Wednesday
8,184402206.83594498
2,4, 1, 4, 0,12,40.00,50.00,Wednesday
8,187246934.51312834
2,4, 1, 4, 0,12,50.00,60.00,Wednesday
8,190162780.3462669
2,4, 1, 4, 0,13, 0.00,10.00,Wednesday
8,186928382.65157074
2,4, 1, 4, 0,13,10.00,20.00,Wednesday
8,183191037.81339577
2,4, 1, 4, 0,13,20.00,30.00,Wednesday
8,179598412.78479815
2,4, 1, 4, 0,13,30.00,40.00,Wednesday
8,176026850.78954098
2,4, 1, 4, 0,13,40.00,50.00,Wednesday
8,172494896.131394
2,4, 1, 4, 0,13,50.00,60.00,Wednesday
8,169084956.9180412
2,4, 1, 4, 0,14, 0.00,10.00,Wednesday
8,168527680.94386634
2,4, 1, 4, 0,14,10.00,20.00,Wednesday
8,166730244.41352272
2,4, 1, 4, 0,14,20.00,30.00,Wednesday
8,164917586.884749
2,4, 1, 4, 0,14,30.00,40.00,Wednesday
8,162943893.1404227
2,4, 1, 4, 0,14,40.00,50.00,Wednesday
8,160907615.07788375
2,4, 1, 4, 0,14,50.00,60.00,Wednesday
8,158840057.7698249
2,4, 1, 4, 0,15, 0.00,10.00,Wednesday
8,155666475.22505623
2,4, 1, 4, 0,15,10.00,20.00,Wednesday
8,151826942.3008178
2,4, 1, 4, 0,15,20.00,30.00,Wednesday
8,147856054.59948665
2,4, 1, 4, 0,15,30.00,40.00,Wednesday
8,143949621.89142516