Program Version,EnergyPlus, Version 23.2.0-7636e6b3e9, YMD=2025.01.19 15:46
1,5,Environment Title[],Latitude[deg],Longitude[deg],Time Zone[],Elevation[m]
2,8,Day of Simulation[],Month[],Day of Month[],DST Indicator[1=yes 0=no],Hour[],StartMinute[],EndMinute[],DayType
3,5,Cumulative Day of Simulation[],Month[],Day of Month[],DST Indicator[1=yes 0=no],DayType  ! When Daily Report Variables Requested
4,2,Cumulative Days of Simulation[],Month[]  ! When Monthly Report Variables Requested
5,1,Cumulative Days of Simulation[] ! When Run Period Report Variables Requested
6,1,Calendar Year of Simulation[] ! When Annual Report Variables Requested
9,1,Electricity:Facility [J] !TimeStep
End of Data Dictionary
1,RUN PERIOD 1,  45.84, -75.65,  -5.00, 194.60
2,1, 1, 1, 0, 1, 0.00,10.00,Sunday
9,16217611.998598808
2,1, 1, 1, 0, 1,10.00,20.00,Sunday
9,16959437.86673151
2,1, 1, 1, 0, 1,20.00,30.00,Sunday
9,17196009.75042217
2,1, 1, 1, 0, 1,30.00,40.00,Sunday
9,17316950.17484896
2,1, 1, 1, 0, 1,40.00,50.00,Sunday
9,17699822.396755803
2,1, 1, 1, 0, 1,50.00,60.00,Sunday
9,17143922.87051968
2,1, 1, 1, 0, 2, 0.00,10.00,Sunday
9,19035046.14893159
2,1, 1, 1, 0, 2,10.00,20.00,Sunday
9,19498536.8419899
2,1, 1, 1, 0, 2,20.00,30.00,Sunday
9,20087692.588326722
2,1, 1, 1, 0, 2,30.00,40.00,Sunday
9,19808744.773067433
2,1, 1, 1, 0, 2,40.00,50.00,Sunday
9,19890112.979736775
2,1, 1, 1, 0, 2,50.00,60.00,Sunday
9,19935969.743061375
2,1, 1, 1, 0, 3, 0.00,10.00,Sunday
9,21003998.19188127
2,1, 1, 1, 0, 3,10.00,20.00,Sunday
9,20826752.88253377
2,1, 1, 1, 0, 3,20.00,30.00,Sunday
9,20990982.66550942
2,1, 1, 1, 0, 3,30.00,40.00,Sunday
9,21148882.184489623
2,1, 1, 1, 0, 3,40.00,50.00,Sunday
9,21519081.007638615
2,1, 1, 1, 0, 3,50.00,60.00,Sunday
9,21627968.39412868
2,1, 1, 1, 0, 4, 0.00,10.00,Sunday
9,21807457.365824297
2,1, 1, 1, 0, 4,10.00,20.00,Sunday
9,21897759.236610267
2,1, 1, 1, 0, 4,20.00,30.00,Sunday
9,21935285.48222818
2,1, 1, 1, 0, 4,30.00,40.00,Sunday
9,22369174.34499439
2,1, 1, 1, 0, 4,40.00,50.00,Sunday
9,21978343.97732212
2,1, 1, 1, 0, 4,50.00,60.00,Sunday
9,21988081.12459746
2,1, 1, 1, 0, 5, 0.00,10.00,Sunday
9,22080118.302720454
2,1, 1, 1, 0, 5,10.00,20.00,Sunday
9,22520720.10848849
2,1, 1, 1, 0, 5,20.00,30.00,Sunday
9,22125114.250709426
2,1, 1, 1, 0, 5,30.00,40.00,Sunday
9,22136724.667786848
2,1, 1, 1, 0, 5,40.00,50.00,Sunday
9,22145768.442862723
2,1, 1, 1, 0, 5,50.00,60.00,Sunday
9,22566627.379803635
2,1, 1, 1, 0, 6, 0.00,10.00,Sunday
9,22071903.546112712
2,1, 1, 1, 0, 6,10.00,20.00,Sunday
9,22090535.94127991
2,1, 1, 1, 0, 6,20.00,30.00,Sunday
9,22132094.38629922
2,1, 1, 1, 0, 6,30.00,40.00,Sunday
9,22204467.08999233
2,1, 1, 1, 0, 6,40.00,50.00,Sunday
9,22622920.483824067
2,1, 1, 1, 0, 6,50.00,60.00,Sunday
9,22301101.5493689
2,1, 1, 1, 0, 7, 0.00,10.00,Sunday
9,22373778.436745334
2,1, 1, 1, 0, 7,10.00,20.00,Sunday
9,22388945.907881353
2,1, 1, 1, 0, 7,20.00,30.00,Sunday
9,22799674.33796012
2,1, 1, 1, 0, 7,30.00,40.00,Sunday
9,22387943.881045427
2,1, 1, 1, 0, 7,40.00,50.00,Sunday
9,22382290.4124105
2,1, 1, 1, 0, 7,50.00,60.00,Sunday
9,22375484.078188736
2,1, 1, 1, 0, 8, 0.00,10.00,Sunday
9,22775479.269814543
2,1, 1, 1, 0, 8,10.00,20.00,Sunday
9,22402352.752870068
2,1, 1, 1, 0, 8,20.00,30.00,Sunday
9,22456832.368341263
2,1, 1, 1, 0, 8,30.00,40.00,Sunday
9,22518059.831157673
2,1, 1, 1, 0, 8,40.00,50.00,Sunday
9,22849605.388240937
2,1, 1, 1, 0, 8,50.00,60.00,Sunday
9,21072349.303824227
2,1, 1, 1, 0, 9, 0.00,10.00,Sunday
9,22631530.99359337
2,1, 1, 1, 0, 9,10.00,20.00,Sunday
9,18964896.2765933
2,1, 1, 1, 0, 9,20.00,30.00,Sunday
9,17196537.982283067
2,1, 1, 1, 0, 9,30.00,40.00,Sunday
9,16530903.640859028
2,1, 1, 1, 0, 9,40.00,50.00,Sunday
9,16342831.86437581
2,1, 1, 1, 0, 9,50.00,60.00,Sunday
9,13180608.30766804
2,1, 1, 1, 0,10, 0.00,10.00,Sunday
9,102145603.55047551
2,1, 1, 1, 0,10,10.00,20.00,Sunday
9,67099010.99618402
2,1, 1, 1, 0,10,20.00,30.00,Sunday
9,70611490.56924222
2,1, 1, 1, 0,10,30.00,40.00,Sunday
9,76393674.87134662
2,1, 1, 1, 0,10,40.00,50.00,Sunday
9,59730440.5383026
2,1, 1, 1, 0,10,50.00,60.00,Sunday
9,68884790.29613975
2,1, 1, 1, 0,11, 0.00,10.00,Sunday
9,103490273.42146379
2,1, 1, 1, 0,11,10.00,20.00,Sunday
9,51345015.27206835
2,1, 1, 1, 0,11,20.00,30.00,Sunday
9,86428832.0518613
2,1, 1, 1, 0,11,30.00,40.00,Sunday
9,78685397.21205297
2,1, 1, 1, 0,11,40.00,50.00,Sunday
9,74155012.97859308
2,1, 1, 1, 0,11,50.00,60.00,Sunday
9,80875902.2554133
2,1, 1, 1, 0,12, 0.00,10.00,Sunday
9,63414222.34478378
2,1, 1, 1, 0,12,10.00,20.00,Sunday
9,73113691.25065015
2,1, 1, 1, 0,12,20.00,30.00,Sunday
9,70609142.85646525
2,1, 1, 1, 0,12,30.00,40.00,Sunday
9,69426455.89557405
2,1, 1, 1, 0,12,40.00,50.00,Sunday
9,72173394.45375866
2,1, 1, 1, 0,12,50.00,60.00,Sunday
9,68168569.39703935
2,1, 1, 1, 0,13, 0.00,10.00,Sunday
9,70935534.59007126
2,1, 1, 1, 0,13,10.00,20.00,Sunday
9,65743847.955525056
2,1, 1, 1, 0,13,20.00,30.00,Sunday
9,72887071.08163485
2,1, 1, 1, 0,13,30.00,40.00,Sunday
9,61829950.216843754
2,1, 1, 1, 0,13,40.00,50.00,Sunday
9,78027708.01682895
2,1, 1, 1, 0,13,50.00,60.00,Sunday
9,56709954.014261276
2,1, 1, 1, 0,14, 0.00,10.00,Sunday
9,67738924.0800672
2,1, 1, 1, 0,14,10.00,20.00,Sunday
9,63723721.78270918
2,1, 1, 1, 0,14,20.00,30.00,Sunday
9,65069034.929641396
2,1, 1, 1, 0,14,30.00,40.00,Sunday
9,62335350.04209797
2,1, 1, 1, 0,14,40.00,50.00,Sunday
9,65666387.58851352
2,1, 1, 1, 0,14,50.00,60.00,Sunday
9,58965326.401265465
2,1, 1, 1, 0,15, 0.00,10.00,Sunday
9,68348619.73543286
2,1, 1, 1, 0,15,10.00,20.00,Sunday
9,55031746.08095823
2,1, 1, 1, 0,15,20.00,30.00,Sunday
9,72558981.96855359
2,1, 1, 1, 0,15,30.00,40.00,Sunday
9,52576994.50630932
2,1, 1, 1, 0,15,40.00,50.00,Sunday
9,64692122.80652471
2,1, 1, 1, 0,15,50.00,60.00,Sunday
9,63406224.41855609
2,1, 1, 1, 0,16, 0.00,10.00,Sunday
9,67556372.05882154
2,1, 1, 1, 0,16,10.00,20.00,Sunday
9,72883563.16680397
2,1, 1, 1, 0,16,20.00,30.00,Sunday
9,70120081.11813591
2,1, 1, 1, 0,16,30.00,40.00,Sunday
9,79606859.73822436
2,1, 1, 1, 0,16,40.00,50.00,Sunday
9,70050091.99883334
2,1, 1, 1, 0,16,50.00,60.00,Sunday
9,80227174.7428089
2,1, 1, 1, 0,17, 0.00,10.00,Sunday
9,71374539.94139622
2,1, 1, 1, 0,17,10.00,20.00,Sunday
9,81345786.7372292
2,1, 1, 1, 0,17,20.00,30.00,Sunday
9,72147709.94557726
2,1, 1, 1, 0,17,30.00,40.00,Sunday
9,81993983.87882826
2,1, 1, 1, 0,17,40.00,50.00,Sunday
9,72484685.96592389
2,1, 1, 1, 0,17,50.00,60.00,Sunday
9,82438120.1874533
2,1, 1, 1, 0,18, 0.00,10.00,Sunday
9,73270592.33066228
2,1, 1, 1, 0,18,10.00,20.00,Sunday
9,83414434.48372182
2,1, 1, 1, 0,18,20.00,30.00,Sunday
9,72294369.46616876
2,1, 1, 1, 0,18,30.00,40.00,Sunday
9,83375676.00244969
2,1, 1, 1, 0,18,40.00,50.00,Sunday
9,72049066.95558599
2,1, 1, 1, 0,18,50.00,60.00,Sunday
9,83536145.73803021
2,1, 1, 1, 0,19, 0.00,10.00,Sunday
9,71676935.38086112
2,1, 1, 1, 0,19,10.00,20.00,Sunday
9,83652316.0508783
2,1, 1, 1, 0,19,20.00,30.00,Sunday
9,70434959.55371457
2,1, 1, 1, 0,19,30.00,40.00,Sunday
9,83401184.64629573
2,1, 1, 1, 0,19,40.00,50.00,Sunday
9,69737805.16987957
2,1, 1, 1, 0,19,50.00,60.00,Sunday
9,82879202.08379695
2,1, 1, 1, 0,20, 0.00,10.00,Sunday
9,5097913.284298155
2,1, 1, 1, 0,20,10.00,20.00,Sunday
9,5518602.582820242
2,1, 1, 1, 0,20,20.00,30.00,Sunday
9,5125365.762801425
2,1, 1, 1, 0,20,30.00,40.00,Sunday
9,5153295.579885939
2,1, 1, 1, 0,20,40.00,50.00,Sunday
9,5191814.004766385
2,1, 1, 1, 0,20,50.00,60.00,Sunday
9,6317728.221725194
2,1, 1, 1, 0,21, 0.00,10.00,Sunday
9,7048162.719646013
2,1, 1, 1, 0,21,10.00,20.00,Sunday
9,7509380.585234974
2,1, 1, 1, 0,21,20.00,30.00,Sunday
9,7721121.1457333965
2,1, 1, 1, 0,21,30.00,40.00,Sunday
9,9794093.764650876
2,1, 1, 1, 0,21,40.00,50.00,Sunday
9,13557483.66574632
2,1, 1, 1, 0,21,50.00,60.00,Sunday
9,10680572.036702389
2,1, 1, 1, 0,22, 0.00,10.00,Sunday
9,14016649.02498959
2,1, 1, 1, 0,22,10.00,20.00,Sunday
9,14818835.845911399
2,1, 1, 1, 0,22,20.00,30.00,Sunday
9,15417134.544519093
2,1, 1, 1, 0,22,30.00,40.00,Sunday
9,15186780.929079637
2,1, 1, 1, 0,22,40.00,50.00,Sunday
9,15290940.080467653
2,1, 1, 1, 0,22,50.00,60.00,Sunday
9,15343324.768571777
2,1, 1, 1, 0,23, 0.00,10.00,Sunday
9,17305466.668292455
2,1, 1, 1, 0,23,10.00,20.00,Sunday
9,17344273.334310632
2,1, 1, 1, 0,23,20.00,30.00,Sunday
9,17558224.40752562
2,1, 1, 1, 0,23,30.00,40.00,Sunday
9,17744887.311766796
2,1, 1, 1, 0,23,40.00,50.00,Sunday
9,18310195.86436461
2,1, 1, 1, 0,23,50.00,60.00,Sunday
9,18024695.352315314
2,1, 1, 1, 0,24, 0.00,10.00,Sunday
9,18799523.79336584
2,1, 1, 1, 0,24,10.00,20.00,Sunday
9,19003504.34114593
2,1, 1, 1, 0,24,20.00,30.00,Sunday
9,19356592.09646191
2,1, 1, 1, 0,24,30.00,40.00,Sunday
9,19337211.811000127
2,1, 1, 1, 0,24,40.00,50.00,Sunday
9,19244348.78301244
2,1, 1, 1, 0,24,50.00,60.00,Sunday
9,19294544.637303587
2,2, 1, 2, 0, 1, 0.00,10.00,Monday
9,19760481.026937842
2,2, 1, 2, 0, 1,10.00,20.00,Monday
9,20407750.694689583
2,2, 1, 2, 0, 1,20.00,30.00,Monday
9,20203449.600668404
2,2, 1, 2, 0, 1,30.00,40.00,Monday
9,20403735.96558576
2,2, 1, 2, 0, 1,40.00,50.00,Monday
9,20600151.44545878
2,2, 1, 2, 0, 1,50.00,60.00,Monday
9,21204583.56615204
2,2, 1, 2, 0, 2, 0.00,10.00,Monday
9,21154305.802619737
2,2, 1, 2, 0, 2,10.00,20.00,Monday
9,21342783.522311013
2,2, 1, 2, 0, 2,20.00,30.00,Monday
9,21503623.345784824
2,2, 1, 2, 0, 2,30.00,40.00,Monday
9,22075540.238295894
2,2, 1, 2, 0, 2,40.00,50.00,Monday
9,21817115.104793604
2,2, 1, 2, 0, 2,50.00,60.00,Monday
9,21969647.50261255
2,2, 1, 2, 0, 3, 0.00,10.00,Monday
9,22282229.011205774
2,2, 1, 2, 0, 3,10.00,20.00,Monday
9,22518886.586615164
2,2, 1, 2, 0, 3,20.00,30.00,Monday
9,22876641.225131787
2,2, 1, 2, 0, 3,30.00,40.00,Monday
9,22675425.264920134
2,2, 1, 2, 0, 3,40.00,50.00,Monday
9,22791442.190467183
2,2, 1, 2, 0, 3,50.00,60.00,Monday
9,22904944.135752782
2,2, 1, 2, 0, 4, 0.00,10.00,Monday
9,23542042.25333219
2,2, 1, 2, 0, 4,10.00,20.00,Monday
9,23230587.950521514
2,2, 1, 2, 0, 4,20.00,30.00,Monday
9,23304583.654945564
2,2, 1, 2, 0, 4,30.00,40.00,Monday
9,23375529.685644425
2,2, 1, 2, 0, 4,40.00,50.00,Monday
9,23854139.414134767
2,2, 1, 2, 0, 4,50.00,60.00,Monday
9,23506257.66656525
2,2, 1, 2, 0, 5, 0.00,10.00,Monday
9,23676924.474410232
2,2, 1, 2, 0, 5,10.00,20.00,Monday
9,23788272.860687207
2,2, 1, 2, 0, 5,20.00,30.00,Monday
9,24220631.631286815
2,2, 1, 2, 0, 5,30.00,40.00,Monday
9,24075696.881079946
2,2, 1, 2, 0, 5,40.00,50.00,Monday
9,24093139.59190381
2,2, 1, 2, 0, 5,50.00,60.00,Monday
9,24192547.43478891
2,2, 1, 2, 0, 6, 0.00,10.00,Monday
9,24313259.625134867
2,2, 1, 2, 0, 6,10.00,20.00,Monday
9,24762659.702721007
2,2, 1, 2, 0, 6,20.00,30.00,Monday
9,24388476.512667116
2,2, 1, 2, 0, 6,30.00,40.00,Monday
9,24420049.840816025
2,2, 1, 2, 0, 6,40.00,50.00,Monday
9,24450542.81933764
2,2, 1, 2, 0, 6,50.00,60.00,Monday
9,24890124.84753179
2,2, 1, 2, 0, 7, 0.00,10.00,Monday
9,35706390.75942332
2,2, 1, 2, 0, 7,10.00,20.00,Monday
9,31876120.313275043
2,2, 1, 2, 0, 7,20.00,30.00,Monday
9,30700518.566576406
2,2, 1, 2, 0, 7,30.00,40.00,Monday
9,27693929.648270283
2,2, 1, 2, 0, 7,40.00,50.00,Monday
9,28308204.36386425
2,2, 1, 2, 0, 7,50.00,60.00,Monday
9,26131480.984946102
2,2, 1, 2, 0, 8, 0.00,10.00,Monday
9,82051726.42439264
2,2, 1, 2, 0, 8,10.00,20.00,Monday
9,58506701.1822824
2,2, 1, 2, 0, 8,20.00,30.00,Monday
9,38909552.961995654
2,2, 1, 2, 0, 8,30.00,40.00,Monday
9,41215866.82718987
2,2, 1, 2, 0, 8,40.00,50.00,Monday
9,38792580.957401514
2,2, 1, 2, 0, 8,50.00,60.00,Monday
9,42111620.51758534
2,2, 1, 2, 0, 9, 0.00,10.00,Monday
9,69827901.52649525
2,2, 1, 2, 0, 9,10.00,20.00,Monday
9,57579631.76497944
2,2, 1, 2, 0, 9,20.00,30.00,Monday
9,44946257.49707566
2,2, 1, 2, 0, 9,30.00,40.00,Monday
9,52740655.93307556
2,2, 1, 2, 0, 9,40.00,50.00,Monday
9,31650708.985681582
2,2, 1, 2, 0, 9,50.00,60.00,Monday
9,44265862.7628773
2,2, 1, 2, 0,10, 0.00,10.00,Monday
9,83365637.22054946
2,2, 1, 2, 0,10,10.00,20.00,Monday
9,78473492.81091997
2,2, 1, 2, 0,10,20.00,30.00,Monday
9,71277665.07271646
2,2, 1, 2, 0,10,30.00,40.00,Monday
9,82076452.70479494
2,2, 1, 2, 0,10,40.00,50.00,Monday
9,64754791.640104026
2,2, 1, 2, 0,10,50.00,60.00,Monday
9,75720479.17760904
2,2, 1, 2, 0,11, 0.00,10.00,Monday
9,71167140.17006789
2,2, 1, 2, 0,11,10.00,20.00,Monday
9,74177139.68502884
2,2, 1, 2, 0,11,20.00,30.00,Monday
9,72808603.13238129
2,2, 1, 2, 0,11,30.00,40.00,Monday
9,77264052.34561959
2,2, 1, 2, 0,11,40.00,50.00,Monday
9,71300531.90981452
2,2, 1, 2, 0,11,50.00,60.00,Monday
9,81434808.527249
2,2, 1, 2, 0,12, 0.00,10.00,Monday
9,68888450.39236848
2,2, 1, 2, 0,12,10.00,20.00,Monday
9,77779059.7163322
2,2, 1, 2, 0,12,20.00,30.00,Monday
9,78175673.8357574
2,2, 1, 2, 0,12,30.00,40.00,Monday
9,78597114.35581227
2,2, 1, 2, 0,12,40.00,50.00,Monday
9,84051313.1697939
2,2, 1, 2, 0,12,50.00,60.00,Monday
9,81410844.53276405
2,2, 1, 2, 0,13, 0.00,10.00,Monday
9,81790415.32266241
2,2, 1, 2, 0,13,10.00,20.00,Monday
9,79917600.13137865
2,2, 1, 2, 0,13,20.00,30.00,Monday
9,80415590.18257724
2,2, 1, 2, 0,13,30.00,40.00,Monday
9,83265340.95989321
2,2, 1, 2, 0,13,40.00,50.00,Monday
9,81409779.67414038
2,2, 1, 2, 0,13,50.00,60.00,Monday
9,85253085.49941124
2,2, 1, 2, 0,14, 0.00,10.00,Monday
9,82960892.19560769
2,2, 1, 2, 0,14,10.00,20.00,Monday
9,88622088.02001703
2,2, 1, 2, 0,14,20.00,30.00,Monday
9,91250502.25775954
2,2, 1, 2, 0,14,30.00,40.00,Monday
9,77256904.30116132
2,2, 1, 2, 0,14,40.00,50.00,Monday
9,100003788.98431447
2,2, 1, 2, 0,14,50.00,60.00,Monday
9,71583437.6237669
2,2, 1, 2, 0,15, 0.00,10.00,Monday
9,90158096.52091783
2,2, 1, 2, 0,15,10.00,20.00,Monday
9,88349818.18263492
2,2, 1, 2, 0,15,20.00,30.00,Monday
9,87323326.82825348
2,2, 1, 2, 0,15,30.00,40.00,Monday
9,91536832.90558818
2,2, 1, 2, 0,15,40.00,50.00,Monday
9,88219817.06508504
2,2, 1, 2, 0,15,50.00,60.00,Monday
9,94699873.66180205
2,2, 1, 2, 0,16, 0.00,10.00,Monday
9,100475661.37641531
2,2, 1, 2, 0,16,10.00,20.00,Monday
9,86710624.01749146
2,2, 1, 2, 0,16,20.00,30.00,Monday
9,100925252.62482569
2,2, 1, 2, 0,16,30.00,40.00,Monday
9,102390546.89134052
2,2, 1, 2, 0,16,40.00,50.00,Monday
9,97312456.14531587
2,2, 1, 2, 0,16,50.00,60.00,Monday
9,108539553.52740079
2,2, 1, 2, 0,17, 0.00,10.00,Monday
9,111332775.04619138
2,2, 1, 2, 0,17,10.00,20.00,Monday
9,98148054.19359471
2,2, 1, 2, 0,17,20.00,30.00,Monday
9,107995964.64801142
2,2, 1, 2, 0,17,30.00,40.00,Monday
9,110306207.17503253
2,2, 1, 2, 0,17,40.00,50.00,Monday
9,110320464.64389683
2,2, 1, 2, 0,17,50.00,60.00,Monday
9,108666415.48871142
2,2, 1, 2, 0,18, 0.00,10.00,Monday
9,111163234.344522
2,2, 1, 2, 0,18,10.00,20.00,Monday
9,108637833.33588122
2,2, 1, 2, 0,18,20.00,30.00,Monday
9,111597311.03082107
2,2, 1, 2, 0,18,30.00,40.00,Monday
9,109377616.83750883
2,2, 1, 2, 0,18,40.00,50.00,Monday
9,111930569.89549501
2,2, 1, 2, 0,18,50.00,60.00,Monday
9,109350623.01862152
2,2, 1, 2, 0,19, 0.00,10.00,Monday
9,113133204.19338639
2,2, 1, 2, 0,19,10.00,20.00,Monday
9,111221175.18319488
2,2, 1, 2, 0,19,20.00,30.00,Monday
9,113999026.43805873
2,2, 1, 2, 0,19,30.00,40.00,Monday
9,110542081.61748189
2,2, 1, 2, 0,19,40.00,50.00,Monday
9,114983651.27150829
2,2, 1, 2, 0,19,50.00,60.00,Monday
9,112712567.29818243
2,2, 1, 2, 0,20, 0.00,10.00,Monday
9,102175002.99498802
2,2, 1, 2, 0,20,10.00,20.00,Monday
9,107348480.43151604
2,2, 1, 2, 0,20,20.00,30.00,Monday
9,107396649.30532938
2,2, 1, 2, 0,20,30.00,40.00,Monday
9,107754727.79577038
2,2, 1, 2, 0,20,40.00,50.00,Monday
9,108727609.081744
2,2, 1, 2, 0,20,50.00,60.00,Monday
9,109351580.89003946
2,2, 1, 2, 0,21, 0.00,10.00,Monday
9,110176282.72497325
2,2, 1, 2, 0,21,10.00,20.00,Monday
9,111151125.7918833
2,2, 1, 2, 0,21,20.00,30.00,Monday
9,111654180.69060135
2,2, 1, 2, 0,21,30.00,40.00,Monday
9,111997726.19347042
2,2, 1, 2, 0,21,40.00,50.00,Monday
9,112045800.95067778
2,2, 1, 2, 0,21,50.00,60.00,Monday
9,112922758.03042804
2,2, 1, 2, 0,22, 0.00,10.00,Monday
9,1290079.1397195188
2,2, 1, 2, 0,22,10.00,20.00,Monday
9,1704415.0464610448
2,2, 1, 2, 0,22,20.00,30.00,Monday
9,1520437.103858918
2,2, 1, 2, 0,22,30.00,40.00,Monday
9,4680787.403941927
2,2, 1, 2, 0,22,40.00,50.00,Monday
9,7838293.821900968
2,2, 1, 2, 0,22,50.00,60.00,Monday
9,9577310.772496738
2,2, 1, 2, 0,23, 0.00,10.00,Monday
9,12272848.674088597
2,2, 1, 2, 0,23,10.00,20.00,Monday
9,17638731.207923967
2,2, 1, 2, 0,23,20.00,30.00,Monday
9,29927617.068808973
2,2, 1, 2, 0,23,30.00,40.00,Monday
9,22382516.680128682
2,2, 1, 2, 0,23,40.00,50.00,Monday
9,24516759.41732949
2,2, 1, 2, 0,23,50.00,60.00,Monday
9,25159629.192558914
2,2, 1, 2, 0,24, 0.00,10.00,Monday
9,29095080.960273575
2,2, 1, 2, 0,24,10.00,20.00,Monday
9,30289855.221706856
2,2, 1, 2, 0,24,20.00,30.00,Monday
9,31189039.76559617
2,2, 1, 2, 0,24,30.00,40.00,Monday
9,31186991.983511027
2,2, 1, 2, 0,24,40.00,50.00,Monday
9,31495015.700624917
2,2, 1, 2, 0,24,50.00,60.00,Monday
9,31728634.63275113
2,3, 1, 3, 0, 1, 0.00,10.00,Tuesday
9,34066888.123884514
2,3, 1, 3, 0, 1,10.00,20.00,Tuesday
9,34253840.78469828
2,3, 1, 3, 0, 1,20.00,30.00,Tuesday
9,34343928.471377306
2,3, 1, 3, 0, 1,30.00,40.00,Tuesday
9,34467697.4937349
2,3, 1, 3, 0, 1,40.00,50.00,Tuesday
9,34545303.05583408
2,3, 1, 3, 0, 1,50.00,60.00,Tuesday
9,34994698.47664575
2,3, 1, 3, 0, 2, 0.00,10.00,Tuesday
9,35598625.899183124
2,3, 1, 3, 0, 2,10.00,20.00,Tuesday
9,35974097.6376652
2,3, 1, 3, 0, 2,20.00,30.00,Tuesday
9,36245245.642238416
2,3, 1, 3, 0, 2,30.00,40.00,Tuesday
9,36914495.721316345
2,3, 1, 3, 0, 2,40.00,50.00,Tuesday
9,36748611.97368155
2,3, 1, 3, 0, 2,50.00,60.00,Tuesday
9,36981526.615117505
2,3, 1, 3, 0, 3, 0.00,10.00,Tuesday
9,37631862.66918661
2,3, 1, 3, 0, 3,10.00,20.00,Tuesday
9,38277554.38848153
2,3, 1, 3, 0, 3,20.00,30.00,Tuesday
9,38025215.68120475
2,3, 1, 3, 0, 3,30.00,40.00,Tuesday
9,38174920.00298932
2,3, 1, 3, 0, 3,40.00,50.00,Tuesday
9,38313987.35493195
2,3, 1, 3, 0, 3,50.00,60.00,Tuesday
9,38663027.092495054
2,3, 1, 3, 0, 4, 0.00,10.00,Tuesday
9,39037138.14073776
2,3, 1, 3, 0, 4,10.00,20.00,Tuesday
9,39017037.8505282
2,3, 1, 3, 0, 4,20.00,30.00,Tuesday
9,39149820.68857967
2,3, 1, 3, 0, 4,30.00,40.00,Tuesday
9,39277354.161670156
2,3, 1, 3, 0, 4,40.00,50.00,Tuesday
9,39805437.699829035
2,3, 1, 3, 0, 4,50.00,60.00,Tuesday
9,39514333.873020336
2,3, 1, 3, 0, 5, 0.00,10.00,Tuesday
9,39643603.20143141
2,3, 1, 3, 0, 5,10.00,20.00,Tuesday
9,39659306.03123444
2,3, 1, 3, 0, 5,20.00,30.00,Tuesday
9,40068794.84187539
2,3, 1, 3, 0, 5,30.00,40.00,Tuesday
9,39654097.47564447
2,3, 1, 3, 0, 5,40.00,50.00,Tuesday
9,39647438.71756233
2,3, 1, 3, 0, 5,50.00,60.00,Tuesday
9,39638996.28417105
2,3, 1, 3, 0, 6, 0.00,10.00,Tuesday
9,40217451.198566556
2,3, 1, 3, 0, 6,10.00,20.00,Tuesday
9,39869468.14666993
2,3, 1, 3, 0, 6,20.00,30.00,Tuesday
9,39921036.68079707
2,3, 1, 3, 0, 6,30.00,40.00,Tuesday
9,39972752.52912876
2,3, 1, 3, 0, 6,40.00,50.00,Tuesday
9,40098619.18155783
2,3, 1, 3, 0, 6,50.00,60.00,Tuesday
9,40402583.95511082
2,3, 1, 3, 0, 7, 0.00,10.00,Tuesday
9,49832477.55528153
2,3, 1, 3, 0, 7,10.00,20.00,Tuesday
9,47031463.05461355
2,3, 1, 3, 0, 7,20.00,30.00,Tuesday
9,43882620.78329749
2,3, 1, 3, 0, 7,30.00,40.00,Tuesday
9,42662341.078850694
2,3, 1, 3, 0, 7,40.00,50.00,Tuesday
9,46455787.09679977
2,3, 1, 3, 0, 7,50.00,60.00,Tuesday
9,44339720.77853932
2,3, 1, 3, 0, 8, 0.00,10.00,Tuesday
9,103369980.98383953
2,3, 1, 3, 0, 8,10.00,20.00,Tuesday
9,77381831.12907982
2,3, 1, 3, 0, 8,20.00,30.00,Tuesday
9,51255039.89373197
2,3, 1, 3, 0, 8,30.00,40.00,Tuesday
9,53872158.78724014
2,3, 1, 3, 0, 8,40.00,50.00,Tuesday
9,64486216.78311325
2,3, 1, 3, 0, 8,50.00,60.00,Tuesday
9,53986936.41630971
2,3, 1, 3, 0, 9, 0.00,10.00,Tuesday
9,90369687.18739468
2,3, 1, 3, 0, 9,10.00,20.00,Tuesday
9,88079660.31651482
2,3, 1, 3, 0, 9,20.00,30.00,Tuesday
9,70224906.94527584
2,3, 1, 3, 0, 9,30.00,40.00,Tuesday
9,61311381.0944544
2,3, 1, 3, 0, 9,40.00,50.00,Tuesday
9,64630227.92580035
2,3, 1, 3, 0, 9,50.00,60.00,Tuesday
9,51087447.92607012
2,3, 1, 3, 0,10, 0.00,10.00,Tuesday
9,140925043.79711983
2,3, 1, 3, 0,10,10.00,20.00,Tuesday
9,139227027.03343663
2,3, 1, 3, 0,10,20.00,30.00,Tuesday
9,140541112.8886268
2,3, 1, 3, 0,10,30.00,40.00,Tuesday
9,139985866.01943246
2,3, 1, 3, 0,10,40.00,50.00,Tuesday
9,139385292.47404388
2,3, 1, 3, 0,10,50.00,60.00,Tuesday
9,135795991.66667616
2,3, 1, 3, 0,11, 0.00,10.00,Tuesday
9,115886704.18404195
2,3, 1, 3, 0,11,10.00,20.00,Tuesday
9,125040659.80734712
2,3, 1, 3, 0,11,20.00,30.00,Tuesday
9,111253668.58472389
2,3, 1, 3, 0,11,30.00,40.00,Tuesday
9,126220451.32071052
2,3, 1, 3, 0,11,40.00,50.00,Tuesday
9,107841635.94436832
2,3, 1, 3, 0,11,50.00,60.00,Tuesday
9,125982326.67614701
2,3, 1, 3, 0,12, 0.00,10.00,Tuesday
9,102482576.94358093
2,3, 1, 3, 0,12,10.00,20.00,Tuesday
9,118965226.48236245
2,3, 1, 3, 0,12,20.00,30.00,Tuesday
9,111485344.98315674
2,3, 1, 3, 0,12,30.00,40.00,Tuesday
9,117740934.13006303
2,3, 1, 3, 0,12,40.00,50.00,Tuesday
9,101755859.37904657
2,3, 1, 3, 0,12,50.00,60.00,Tuesday
9,112185326.54302126
2,3, 1, 3, 0,13, 0.00,10.00,Tuesday
9,109938580.18396427
2,3, 1, 3, 0,13,10.00,20.00,Tuesday
9,108558390.3123894
2,3, 1, 3, 0,13,20.00,30.00,Tuesday
9,106304539.36495812
2,3, 1, 3, 0,13,30.00,40.00,Tuesday
9,105809307.58411384
2,3, 1, 3, 0,13,40.00,50.00,Tuesday
9,106467825.58229022
2,3, 1, 3, 0,13,50.00,60.00,Tuesday
9,103583322.81218605
2,3, 1, 3, 0,14, 0.00,10.00,Tuesday
9,104436769.68672797
2,3, 1, 3, 0,14,10.00,20.00,Tuesday
9,104741166.39893155
2,3, 1, 3, 0,14,20.00,30.00,Tuesday
9,100447964.9869478
2,3, 1, 3, 0,14,30.00,40.00,Tuesday
9,103035410.21185416
2,3, 1, 3, 0,14,40.00,50.00,Tuesday
9,103087022.93568455
2,3, 1, 3, 0,14,50.00,60.00,Tuesday
9,99218148.49321222
2,3, 1, 3, 0,15, 0.00,10.00,Tuesday
9,103120963.44426923
2,3, 1, 3, 0,15,10.00,20.00,Tuesday
9,101044410.62615673
2,3, 1, 3, 0,15,20.00,30.00,Tuesday
9,102524341.30830637
2,3, 1, 3, 0,15,30.00,40.00,Tuesday
9,100204717.03970233
2,3, 1, 3, 0,15,40.00,50.00,Tuesday
9,102320472.30890834
2,3, 1, 3, 0,15,50.00,60.00,Tuesday
9,99816250.88517363
2,3, 1, 3, 0,16, 0.00,10.00,Tuesday
9,99839489.28321081
2,3, 1, 3, 0,16,10.00,20.00,Tuesday
9,99903946.58999176
2,3, 1, 3, 0,16,20.00,30.00,Tuesday
9,99646057.01628803
2,3, 1, 3, 0,16,30.00,40.00,Tuesday
9,104201225.28138237
2,3, 1, 3, 0,16,40.00,50.00,Tuesday
9,107108164.94940864
2,3, 1, 3, 0,16,50.00,60.00,Tuesday
9,105795866.75639936
2,3, 1, 3, 0,17, 0.00,10.00,Tuesday
9,117499893.23435739
2,3, 1, 3, 0,17,10.00,20.00,Tuesday
9,118693930.75852711
2,3, 1, 3, 0,17,20.00,30.00,Tuesday
9,121232786.72659023
2,3, 1, 3, 0,17,30.00,40.00,Tuesday
9,122252874.19527638
2,3, 1, 3, 0,17,40.00,50.00,Tuesday
9,121350325.56983669
2,3, 1, 3, 0,17,50.00,60.00,Tuesday
9,125083939.46528053
2,3, 1, 3, 0,18, 0.00,10.00,Tuesday
9,130426588.92103918
2,3, 1, 3, 0,18,10.00,20.00,Tuesday
9,129675541.89551216
2,3, 1, 3, 0,18,20.00,30.00,Tuesday
9,133282198.18640476
2,3, 1, 3, 0,18,30.00,40.00,Tuesday
9,133767053.48809123
2,3, 1, 3, 0,18,40.00,50.00,Tuesday
9,135170747.30553636
2,3, 1, 3, 0,18,50.00,60.00,Tuesday
9,134099793.1116279
2,3, 1, 3, 0,19, 0.00,10.00,Tuesday
9,133176848.92774396
2,3, 1, 3, 0,19,10.00,20.00,Tuesday
9,136721738.34802967
2,3, 1, 3, 0,19,20.00,30.00,Tuesday
9,138382294.07720798
2,3, 1, 3, 0,19,30.00,40.00,Tuesday
9,138600406.98832643
2,3, 1, 3, 0,19,40.00,50.00,Tuesday
9,135124860.7648494
2,3, 1, 3, 0,19,50.00,60.00,Tuesday
9,137604636.8749335
2,3, 1, 3, 0,20, 0.00,10.00,Tuesday
9,120001291.45091893
2,3, 1, 3, 0,20,10.00,20.00,Tuesday
9,128465612.65257214
2,3, 1, 3, 0,20,20.00,30.00,Tuesday
9,126534156.23661475
2,3, 1, 3, 0,20,30.00,40.00,Tuesday
9,126018910.18731968
2,3, 1, 3, 0,20,40.00,50.00,Tuesday
9,126261503.88904038
2,3, 1, 3, 0,20,50.00,60.00,Tuesday
9,126126214.48438564
2,3, 1, 3, 0,21, 0.00,10.00,Tuesday
9,127444574.6861396
2,3, 1, 3, 0,21,10.00,20.00,Tuesday
9,128522648.64184
2,3, 1, 3, 0,21,20.00,30.00,Tuesday
9,129252931.7013452
2,3, 1, 3, 0,21,30.00,40.00,Tuesday
9,129701994.04678904
2,3, 1, 3, 0,21,40.00,50.00,Tuesday
9,129752823.67492321
2,3, 1, 3, 0,21,50.00,60.00,Tuesday
9,130766231.46957815
2,3, 1, 3, 0,22, 0.00,10.00,Tuesday
9,1290079.1397195188
2,3, 1, 3, 0,22,10.00,20.00,Tuesday
9,1704427.4152234646
2,3, 1, 3, 0,22,20.00,30.00,Tuesday
9,2002041.8520300994
2,3, 1, 3, 0,22,30.00,40.00,Tuesday
9,5167275.338462603
2,3, 1, 3, 0,22,40.00,50.00,Tuesday
9,8379861.819725079
2,3, 1, 3, 0,22,50.00,60.00,Tuesday
9,10236672.523772832
2,3, 1, 3, 0,23, 0.00,10.00,Tuesday
9,12807643.757084738
2,3, 1, 3, 0,23,10.00,20.00,Tuesday
9,17351947.421611074
2,3, 1, 3, 0,23,20.00,30.00,Tuesday
9,30523231.58292078
2,3, 1, 3, 0,23,30.00,40.00,Tuesday
9,24201822.8020742
2,3, 1, 3, 0,23,40.00,50.00,Tuesday
9,26032960.655063704
2,3, 1, 3, 0,23,50.00,60.00,Tuesday
9,27049246.648568925
2,3, 1, 3, 0,24, 0.00,10.00,Tuesday
9,31401692.303525805
2,3, 1, 3, 0,24,10.00,20.00,Tuesday
9,32633083.76017431
2,3, 1, 3, 0,24,20.00,30.00,Tuesday
9,33536144.07317001
2,3, 1, 3, 0,24,30.00,40.00,Tuesday
9,33534151.667152267
2,3, 1, 3, 0,24,40.00,50.00,Tuesday
9,33831483.52733588
2,3, 1, 3, 0,24,50.00,60.00,Tuesday
9,34049120.79988705
2,4, 1, 4, 0, 1, 0.00,10.00,Wednesday
9,36464076.894331545
2,4, 1, 4, 0, 1,10.00,20.00,Wednesday
9,36452011.31694246
2,4, 1, 4, 0, 1,20.00,30.00,Wednesday
9,36567972.58386694
2,4, 1, 4, 0, 1,30.00,40.00,Wednesday
9,36645089.25729931
2,4, 1, 4, 0, 1,40.00,50.00,Wednesday
9,36880008.55194167
2,4, 1, 4, 0, 1,50.00,60.00,Wednesday
9,36877088.03253559
2,4, 1, 4, 0, 2, 0.00,10.00,Wednesday
9,37543590.388676696
2,4, 1, 4, 0, 2,10.00,20.00,Wednesday
9,37679598.65726381
2,4, 1, 4, 0, 2,20.00,30.00,Wednesday
9,37692564.26897213
2,4, 1, 4, 0, 2,30.00,40.00,Wednesday
9,38092333.891069524
2,4, 1, 4, 0, 2,40.00,50.00,Wednesday
9,37654886.2350214
2,4, 1, 4, 0, 2,50.00,60.00,Wednesday
9,37609904.651921965
2,4, 1, 4, 0, 3, 0.00,10.00,Wednesday
9,37955913.1039031
2,4, 1, 4, 0, 3,10.00,20.00,Wednesday
9,38411829.65681923
2,4, 1, 4, 0, 3,20.00,30.00,Wednesday
9,37992501.47237809
2,4, 1, 4, 0, 3,30.00,40.00,Wednesday
9,37973799.734358445
2,4, 1, 4, 0, 3,40.00,50.00,Wednesday
9,37945658.49670006
2,4, 1, 4, 0, 3,50.00,60.00,Wednesday
9,38324639.55223735
2,4, 1, 4, 0, 4, 0.00,10.00,Wednesday
9,38150919.92704901
2,4, 1, 4, 0, 4,10.00,20.00,Wednesday
9,38340370.885817066
2,4, 1, 4, 0, 4,20.00,30.00,Wednesday
9,38561345.20255674
2,4, 1, 4, 0, 4,30.00,40.00,Wednesday
9,38803253.44346791
2,4, 1, 4, 0, 4,40.00,50.00,Wednesday
9,39227151.36906821
2,4, 1, 4, 0, 4,50.00,60.00,Wednesday
9,39100151.46343209
2,4, 1, 4, 0, 5, 0.00,10.00,Wednesday
9,39331668.8868511
2,4, 1, 4, 0, 5,10.00,20.00,Wednesday
9,39443146.495337665
2,4, 1, 4, 0, 5,20.00,30.00,Wednesday
9,39942152.88901448
2,4, 1, 4, 0, 5,30.00,40.00,Wednesday
9,39618411.10872127
2,4, 1, 4, 0, 5,40.00,50.00,Wednesday
9,39698634.70207038
2,4, 1, 4, 0, 5,50.00,60.00,Wednesday
9,39775761.426211715
2,4, 1, 4, 0, 6, 0.00,10.00,Wednesday
9,40211151.33483596
2,4, 1, 4, 0, 6,10.00,20.00,Wednesday
9,39807857.69634244
2,4, 1, 4, 0, 6,20.00,30.00,Wednesday
9,39814318.77522748
2,4, 1, 4, 0, 6,30.00,40.00,Wednesday
9,39821566.47661455
2,4, 1, 4, 0, 6,40.00,50.00,Wednesday
9,40192468.43185047
2,4, 1, 4, 0, 6,50.00,60.00,Wednesday
9,39885260.53493023
2,4, 1, 4, 0, 7, 0.00,10.00,Wednesday
9,49315501.15768423
2,4, 1, 4, 0, 7,10.00,20.00,Wednesday
9,46472590.72092003
2,4, 1, 4, 0, 7,20.00,30.00,Wednesday
9,43201994.25118778
2,4, 1, 4, 0, 7,30.00,40.00,Wednesday
9,41873238.0185634
2,4, 1, 4, 0, 7,40.00,50.00,Wednesday
9,45371681.33562055
2,4, 1, 4, 0, 7,50.00,60.00,Wednesday
9,44081960.316742845
2,4, 1, 4, 0, 8, 0.00,10.00,Wednesday
9,104386835.20745604
2,4, 1, 4, 0, 8,10.00,20.00,Wednesday
9,76126483.92523916
2,4, 1, 4, 0, 8,20.00,30.00,Wednesday
9,51306583.13034039
2,4, 1, 4, 0, 8,30.00,40.00,Wednesday
9,53422563.19511886
2,4, 1, 4, 0, 8,40.00,50.00,Wednesday
9,57731767.509665914
2,4, 1, 4, 0, 8,50.00,60.00,Wednesday
9,58866019.05096322
2,4, 1, 4, 0, 9, 0.00,10.00,Wednesday
9,89256690.9659321
2,4, 1, 4, 0, 9,10.00,20.00,Wednesday
9,85450044.18381664
2,4, 1, 4, 0, 9,20.00,30.00,Wednesday
9,62814064.30666612
2,4, 1, 4, 0, 9,30.00,40.00,Wednesday
9,56971089.91875294
2,4, 1, 4, 0, 9,40.00,50.00,Wednesday
9,70540657.0265243
2,4, 1, 4, 0, 9,50.00,60.00,Wednesday
9,56206237.35132663
2,4, 1, 4, 0,10, 0.00,10.00,Wednesday
9,136328769.52303675
2,4, 1, 4, 0,10,10.00,20.00,Wednesday
9,133281798.26897624
2,4, 1, 4, 0,10,20.00,30.00,Wednesday
9,131267452.03844245
2,4, 1, 4, 0,10,30.00,40.00,Wednesday
9,129692111.24986416
2,4, 1, 4, 0,10,40.00,50.00,Wednesday
9,134277424.0638869
2,4, 1, 4, 0,10,50.00,60.00,Wednesday
9,123243795.05226418
2,4, 1, 4, 0,11, 0.00,10.00,Wednesday
9,128415349.58427183
2,4, 1, 4, 0,11,10.00,20.00,Wednesday
9,112825871.8843261
2,4, 1, 4, 0,11,20.00,30.00,Wednesday
9,123200019.42282914
2,4, 1, 4, 0,11,30.00,40.00,Wednesday
9,122039826.49503541
2,4, 1, 4, 0,11,40.00,50.00,Wednesday
9,111536048.26049633
2,4, 1, 4, 0,11,50.00,60.00,Wednesday
9,119535318.80719763
2,4, 1, 4, 0,12, 0.00,10.00,Wednesday
9,114406240.6214249
2,4, 1, 4, 0,12,10.00,20.00,Wednesday
9,103821825.66707602
2,4, 1, 4, 0,12,20.00,30.00,Wednesday
9,116792553.98323862
2,4, 1, 4, 0,12,30.00,40.00,Wednesday
9,110523908.63516408
2,4, 1, 4, 0,12,40.00,50.00,Wednesday
9,109103213.78349468
2,4, 1, 4, 0,12,50.00,60.00,Wednesday
9,104262652.03784248
2,4, 1, 4, 0,13, 0.00,10.00,Wednesday
9,102221965.89259854
2,4, 1, 4, 0,13,10.00,20.00,Wednesday
9,103169089.6171466
2,4, 1, 4, 0,13,20.00,30.00,Wednesday
9,100527306.70534857
2,4, 1, 4, 0,13,30.00,40.00,Wednesday
9,103592554.0473005
2,4, 1, 4, 0,13,40.00,50.00,Wednesday
9,98368109.52635953
2,4, 1, 4, 0,13,50.00,60.00,Wednesday
9,105540538.13864927
2,4, 1, 4, 0,14, 0.00,10.00,Wednesday
9,94133775.20194888
2,4, 1, 4, 0,14,10.00,20.00,Wednesday
9,110848213.34947091
2,4, 1, 4, 0,14,20.00,30.00,Wednesday
9,88369738.14804865
2,4, 1, 4, 0,14,30.00,40.00,Wednesday
9,101951460.65959162
2,4, 1, 4, 0,14,40.00,50.00,Wednesday
9,100412813.02708602
2,4, 1, 4, 0,14,50.00,60.00,Wednesday
9,99085042.4962547
2,4, 1, 4, 0,15, 0.00,10.00,Wednesday
9,104189459.00309332
2,4, 1, 4, 0,15,10.00,20.00,Wednesday
9,101862062.66847032
2,4, 1, 4, 0,15,20.00,30.00,Wednesday
9,106647278.90320571
2,4, 1, 4, 0,15,30.00,40.00,Wednesday
9,108136102.8178001