Program Version,EnergyPlus, Version 23.2.0-7636e6b3e9, YMD=2025.01.19 15:47
1,5,Environment Title[],Latitude[deg],Longitude[deg],Time Zone[],Elevation[m]
2,8,Day of Simulation[],Month[],Day of Month[],DST Indicator[1=yes 0=no],Hour[],StartMinute[],EndMinute[],DayType
3,5,Cumulative Day of Simulation[],Month[],Day of Month[],DST Indicator[1=yes 0=no],DayType  ! When Daily Report Variables Requested
4,2,Cumulative Days of Simulation[],Month[]  ! When Monthly Report Variables Requested
5,1,Cumulative Days of Simulation[] ! When Run Period Report Variables Requested
6,1,Calendar Year of Simulation[] ! When Annual Report Variables Requested
9,1,Electricity:Facility [J] !TimeStep
End of Data Dictionary
1,RUN PERIOD 1,  45.52, -73.42,  -5.00,  27.40
2,1, 1, 1, 0, 1, 0.00,10.00,Sunday
9,39756347.14991184
2,1, 1, 1, 0, 1,10.00,20.00,Sunday
9,39985923.022909306
2,1, 1, 1, 0, 1,20.00,30.00,Sunday
9,39182590.86169121
2,1, 1, 1, 0, 1,30.00,40.00,Sunday
9,38327656.5964597
2,1, 1, 1, 0, 1,40.00,50.00,Sunday
9,37783441.3668302
2,1, 1, 1, 0, 1,50.00,60.00,Sunday
9,36407350.45169113
2,1, 1, 1, 0, 2, 0.00,10.00,Sunday
9,37780496.91364917
2,1, 1, 1, 0, 2,10.00,20.00,Sunday
9,38229531.18589647
2,1, 1, 1, 0, 2,20.00,30.00,Sunday
9,38949677.80076279
2,1, 1, 1, 0, 2,30.00,40.00,Sunday
9,38845492.37609593
2,1, 1, 1, 0, 2,40.00,50.00,Sunday
9,39133398.74478704
2,1, 1, 1, 0, 2,50.00,60.00,Sunday
9,39407493.41683701
2,1, 1, 1, 0, 3, 0.00,10.00,Sunday
9,40836234.802321844
2,1, 1, 1, 0, 3,10.00,20.00,Sunday
9,40781561.736569285
2,1, 1, 1, 0, 3,20.00,30.00,Sunday
9,41026828.66032161
2,1, 1, 1, 0, 3,30.00,40.00,Sunday
9,41256297.16081553
2,1, 1, 1, 0, 3,40.00,50.00,Sunday
9,41688286.52344382
2,1, 1, 1, 0, 3,50.00,60.00,Sunday
9,41852048.601892166
2,1, 1, 1, 0, 4, 0.00,10.00,Sunday
9,41394679.804123916
2,1, 1, 1, 0, 4,10.00,20.00,Sunday
9,40771828.183657475
2,1, 1, 1, 0, 4,20.00,30.00,Sunday
9,40087046.33292799
2,1, 1, 1, 0, 4,30.00,40.00,Sunday
9,39795032.272645265
2,1, 1, 1, 0, 4,40.00,50.00,Sunday
9,38671211.57350984
2,1, 1, 1, 0, 4,50.00,60.00,Sunday
9,37970800.13149126
2,1, 1, 1, 0, 5, 0.00,10.00,Sunday
9,38474194.918924764
2,1, 1, 1, 0, 5,10.00,20.00,Sunday
9,39226233.977070585
2,1, 1, 1, 0, 5,20.00,30.00,Sunday
9,39121570.6081013
2,1, 1, 1, 0, 5,30.00,40.00,Sunday
9,39422380.30496397
2,1, 1, 1, 0, 5,40.00,50.00,Sunday
9,39718409.17017576
2,1, 1, 1, 0, 5,50.00,60.00,Sunday
9,40424665.196027406
2,1, 1, 1, 0, 6, 0.00,10.00,Sunday
9,39928473.24660918
2,1, 1, 1, 0, 6,10.00,20.00,Sunday
9,39758182.3189794
2,1, 1, 1, 0, 6,20.00,30.00,Sunday
9,39574667.54943347
2,1, 1, 1, 0, 6,30.00,40.00,Sunday
9,39410522.008761615
2,1, 1, 1, 0, 6,40.00,50.00,Sunday
9,39583273.3858382
2,1, 1, 1, 0, 6,50.00,60.00,Sunday
9,39008650.14629953
2,1, 1, 1, 0, 7, 0.00,10.00,Sunday
9,38361031.57336798
2,1, 1, 1, 0, 7,10.00,20.00,Sunday
9,37683626.52938105
2,1, 1, 1, 0, 7,20.00,30.00,Sunday
9,37409653.86934071
2,1, 1, 1, 0, 7,30.00,40.00,Sunday
9,36325954.93400061
2,1, 1, 1, 0, 7,40.00,50.00,Sunday
9,35627597.285864085
2,1, 1, 1, 0, 7,50.00,60.00,Sunday
9,34874856.88630688
2,1, 1, 1, 0, 8, 0.00,10.00,Sunday
9,35579425.185183235
2,1, 1, 1, 0, 8,10.00,20.00,Sunday
9,35454503.4765871
2,1, 1, 1, 0, 8,20.00,30.00,Sunday
9,35746399.10956993
2,1, 1, 1, 0, 8,30.00,40.00,Sunday
9,35742979.311814725
2,1, 1, 1, 0, 8,40.00,50.00,Sunday
9,35827835.739042476
2,1, 1, 1, 0, 8,50.00,60.00,Sunday
9,35328005.35638987
2,1, 1, 1, 0, 9, 0.00,10.00,Sunday
9,36194665.33347702
2,1, 1, 1, 0, 9,10.00,20.00,Sunday
9,36011498.346758336
2,1, 1, 1, 0, 9,20.00,30.00,Sunday
9,35332448.22727628
2,1, 1, 1, 0, 9,30.00,40.00,Sunday
9,34862774.134684674
2,1, 1, 1, 0, 9,40.00,50.00,Sunday
9,34457976.14061147
2,1, 1, 1, 0, 9,50.00,60.00,Sunday
9,33394767.254553962
2,1, 1, 1, 0,10, 0.00,10.00,Sunday
9,154033899.7020679
2,1, 1, 1, 0,10,10.00,20.00,Sunday
9,122340737.52810289
2,1, 1, 1, 0,10,20.00,30.00,Sunday
9,121045092.46359356
2,1, 1, 1, 0,10,30.00,40.00,Sunday
9,112937518.37573566
2,1, 1, 1, 0,10,40.00,50.00,Sunday
9,120828389.59940328
2,1, 1, 1, 0,10,50.00,60.00,Sunday
9,107553536.83509286
2,1, 1, 1, 0,11, 0.00,10.00,Sunday
9,145072292.37993112
2,1, 1, 1, 0,11,10.00,20.00,Sunday
9,93085754.90044762
2,1, 1, 1, 0,11,20.00,30.00,Sunday
9,133012630.49149221
2,1, 1, 1, 0,11,30.00,40.00,Sunday
9,122839282.33625653
2,1, 1, 1, 0,11,40.00,50.00,Sunday
9,118431840.16116412
2,1, 1, 1, 0,11,50.00,60.00,Sunday
9,128862941.97756667
2,1, 1, 1, 0,12, 0.00,10.00,Sunday
9,119427739.52747907
2,1, 1, 1, 0,12,10.00,20.00,Sunday
9,122977721.74823608
2,1, 1, 1, 0,12,20.00,30.00,Sunday
9,116299053.99618551
2,1, 1, 1, 0,12,30.00,40.00,Sunday
9,123914133.99380933
2,1, 1, 1, 0,12,40.00,50.00,Sunday
9,116076154.27699427
2,1, 1, 1, 0,12,50.00,60.00,Sunday
9,115255578.36861852
2,1, 1, 1, 0,13, 0.00,10.00,Sunday
9,102067933.60736106
2,1, 1, 1, 0,13,10.00,20.00,Sunday
9,110245644.92522249
2,1, 1, 1, 0,13,20.00,30.00,Sunday
9,98567168.51017594
2,1, 1, 1, 0,13,30.00,40.00,Sunday
9,115459307.7500351
2,1, 1, 1, 0,13,40.00,50.00,Sunday
9,108296570.79992273
2,1, 1, 1, 0,13,50.00,60.00,Sunday
9,115374603.29586104
2,1, 1, 1, 0,14, 0.00,10.00,Sunday
9,107131737.03039412
2,1, 1, 1, 0,14,10.00,20.00,Sunday
9,114622342.47056475
2,1, 1, 1, 0,14,20.00,30.00,Sunday
9,107748238.24415952
2,1, 1, 1, 0,14,30.00,40.00,Sunday
9,116423942.37194976
2,1, 1, 1, 0,14,40.00,50.00,Sunday
9,98831335.55508325
2,1, 1, 1, 0,14,50.00,60.00,Sunday
9,110340569.53643553
2,1, 1, 1, 0,15, 0.00,10.00,Sunday
9,108681151.11321887
2,1, 1, 1, 0,15,10.00,20.00,Sunday
9,112279495.32646859
2,1, 1, 1, 0,15,20.00,30.00,Sunday
9,109597683.7142346
2,1, 1, 1, 0,15,30.00,40.00,Sunday
9,116039476.55562502
2,1, 1, 1, 0,15,40.00,50.00,Sunday
9,108530599.27509223
2,1, 1, 1, 0,15,50.00,60.00,Sunday
9,123140735.7532577
2,1, 1, 1, 0,16, 0.00,10.00,Sunday
9,107119754.43648648
2,1, 1, 1, 0,16,10.00,20.00,Sunday
9,119972728.16600691
2,1, 1, 1, 0,16,20.00,30.00,Sunday
9,120370800.24302723
2,1, 1, 1, 0,16,30.00,40.00,Sunday
9,123026409.16484407
2,1, 1, 1, 0,16,40.00,50.00,Sunday
9,132406084.19170207
2,1, 1, 1, 0,16,50.00,60.00,Sunday
9,121803154.30789475
2,1, 1, 1, 0,17, 0.00,10.00,Sunday
9,134389752.18302608
2,1, 1, 1, 0,17,10.00,20.00,Sunday
9,141118674.1656935
2,1, 1, 1, 0,17,20.00,30.00,Sunday
9,134640341.2437754
2,1, 1, 1, 0,17,30.00,40.00,Sunday
9,146310373.40224326
2,1, 1, 1, 0,17,40.00,50.00,Sunday
9,129664036.06757697
2,1, 1, 1, 0,17,50.00,60.00,Sunday
9,140940283.008245
2,1, 1, 1, 0,18, 0.00,10.00,Sunday
9,145042112.73902762
2,1, 1, 1, 0,18,10.00,20.00,Sunday
9,148002793.89429787
2,1, 1, 1, 0,18,20.00,30.00,Sunday
9,150046445.29962525
2,1, 1, 1, 0,18,30.00,40.00,Sunday
9,149088707.44314212
2,1, 1, 1, 0,18,40.00,50.00,Sunday
9,148207616.20923325
2,1, 1, 1, 0,18,50.00,60.00,Sunday
9,147477959.50835556
2,1, 1, 1, 0,19, 0.00,10.00,Sunday
9,149559258.3463976
2,1, 1, 1, 0,19,10.00,20.00,Sunday
9,148736554.8640771
2,1, 1, 1, 0,19,20.00,30.00,Sunday
9,149620894.05772862
2,1, 1, 1, 0,19,30.00,40.00,Sunday
9,148728499.6128064
2,1, 1, 1, 0,19,40.00,50.00,Sunday
9,151012671.6638189
2,1, 1, 1, 0,19,50.00,60.00,Sunday
9,148283861.43143436
2,1, 1, 1, 0,20, 0.00,10.00,Sunday
9,11211785.399856614
2,1, 1, 1, 0,20,10.00,20.00,Sunday
9,11563524.676433694
2,1, 1, 1, 0,20,20.00,30.00,Sunday
9,12917960.297412513
2,1, 1, 1, 0,20,30.00,40.00,Sunday
9,15172188.25967454
2,1, 1, 1, 0,20,40.00,50.00,Sunday
9,16674824.240295375
2,1, 1, 1, 0,20,50.00,60.00,Sunday
9,19969237.578575827
2,1, 1, 1, 0,21, 0.00,10.00,Sunday
9,28463128.91578566
2,1, 1, 1, 0,21,10.00,20.00,Sunday
9,38054936.84796637
2,1, 1, 1, 0,21,20.00,30.00,Sunday
9,36089552.787257634
2,1, 1, 1, 0,21,30.00,40.00,Sunday
9,37770840.16615827
2,1, 1, 1, 0,21,40.00,50.00,Sunday
9,37694321.821349606
2,1, 1, 1, 0,21,50.00,60.00,Sunday
9,37896041.15318695
2,1, 1, 1, 0,22, 0.00,10.00,Sunday
9,41646146.34602387
2,1, 1, 1, 0,22,10.00,20.00,Sunday
9,42686798.728147976
2,1, 1, 1, 0,22,20.00,30.00,Sunday
9,43155356.931714125
2,1, 1, 1, 0,22,30.00,40.00,Sunday
9,43185033.531266265
2,1, 1, 1, 0,22,40.00,50.00,Sunday
9,43388118.65073379
2,1, 1, 1, 0,22,50.00,60.00,Sunday
9,43581640.96898686
2,1, 1, 1, 0,23, 0.00,10.00,Sunday
9,45310718.94285719
2,1, 1, 1, 0,23,10.00,20.00,Sunday
9,45119560.88812383
2,1, 1, 1, 0,23,20.00,30.00,Sunday
9,45140309.30601818
2,1, 1, 1, 0,23,30.00,40.00,Sunday
9,45133222.23052455
2,1, 1, 1, 0,23,40.00,50.00,Sunday
9,45506662.0563364
2,1, 1, 1, 0,23,50.00,60.00,Sunday
9,45031716.833568156
2,1, 1, 1, 0,24, 0.00,10.00,Sunday
9,46133423.32397109
2,1, 1, 1, 0,24,10.00,20.00,Sunday
9,46767180.458794475
2,1, 1, 1, 0,24,20.00,30.00,Sunday
9,47688291.77552264
2,1, 1, 1, 0,24,30.00,40.00,Sunday
9,47927625.2495148
2,1, 1, 1, 0,24,40.00,50.00,Sunday
9,48411121.8533082
2,1, 1, 1, 0,24,50.00,60.00,Sunday
9,48993638.53133623
2,2, 1, 2, 0, 1, 0.00,10.00,Monday
9,49194390.445001155
2,2, 1, 2, 0, 1,10.00,20.00,Monday
9,49601385.54436205
2,2, 1, 2, 0, 1,20.00,30.00,Monday
9,49162990.448604114
2,2, 1, 2, 0, 1,30.00,40.00,Monday
9,49124009.595582195
2,2, 1, 2, 0, 1,40.00,50.00,Monday
9,49078893.63389489
2,2, 1, 2, 0, 1,50.00,60.00,Monday
9,49438969.50053346
2,2, 1, 2, 0, 2, 0.00,10.00,Monday
9,49126517.97582827
2,2, 1, 2, 0, 2,10.00,20.00,Monday
9,49187935.61646375
2,2, 1, 2, 0, 2,20.00,30.00,Monday
9,49245311.066793464
2,2, 1, 2, 0, 2,30.00,40.00,Monday
9,49715887.91104298
2,2, 1, 2, 0, 2,40.00,50.00,Monday
9,49360513.384325475
2,2, 1, 2, 0, 2,50.00,60.00,Monday
9,49417410.415808395
2,2, 1, 2, 0, 3, 0.00,10.00,Monday
9,49367140.078464925
2,2, 1, 2, 0, 3,10.00,20.00,Monday
9,49532357.69145649
2,2, 1, 2, 0, 3,20.00,30.00,Monday
9,49455973.26516731
2,2, 1, 2, 0, 3,30.00,40.00,Monday
9,49199158.90208594
2,2, 1, 2, 0, 3,40.00,50.00,Monday
9,49139384.368499145
2,2, 1, 2, 0, 3,50.00,60.00,Monday
9,49077719.97641947
2,2, 1, 2, 0, 4, 0.00,10.00,Monday
9,49597247.50390631
2,2, 1, 2, 0, 4,10.00,20.00,Monday
9,49311298.816077985
2,2, 1, 2, 0, 4,20.00,30.00,Monday
9,49313543.24705417
2,2, 1, 2, 0, 4,30.00,40.00,Monday
9,49373514.391456075
2,2, 1, 2, 0, 4,40.00,50.00,Monday
9,49840589.814146206
2,2, 1, 2, 0, 4,50.00,60.00,Monday
9,49484775.403917775
2,2, 1, 2, 0, 5, 0.00,10.00,Monday
9,49370475.01772849
2,2, 1, 2, 0, 5,10.00,20.00,Monday
9,49198767.78147279
2,2, 1, 2, 0, 5,20.00,30.00,Monday
9,49431647.97953743
2,2, 1, 2, 0, 5,30.00,40.00,Monday
9,48835143.251078114
2,2, 1, 2, 0, 5,40.00,50.00,Monday
9,48650043.51963047
2,2, 1, 2, 0, 5,50.00,60.00,Monday
9,48464016.45653403
2,2, 1, 2, 0, 6, 0.00,10.00,Monday
9,48791108.587432005
2,2, 1, 2, 0, 6,10.00,20.00,Monday
9,49358118.92593298
2,2, 1, 2, 0, 6,20.00,30.00,Monday
9,49231222.961452916
2,2, 1, 2, 0, 6,30.00,40.00,Monday
9,49467994.888667
2,2, 1, 2, 0, 6,40.00,50.00,Monday
9,49704030.682432696
2,2, 1, 2, 0, 6,50.00,60.00,Monday
9,50348527.23792623
2,2, 1, 2, 0, 7, 0.00,10.00,Monday
9,63608733.21495803
2,2, 1, 2, 0, 7,10.00,20.00,Monday
9,58447838.31201856
2,2, 1, 2, 0, 7,20.00,30.00,Monday
9,54269175.26313455
2,2, 1, 2, 0, 7,30.00,40.00,Monday
9,54026752.7942826
2,2, 1, 2, 0, 7,40.00,50.00,Monday
9,55357916.919513024
2,2, 1, 2, 0, 7,50.00,60.00,Monday
9,56157431.322787665
2,2, 1, 2, 0, 8, 0.00,10.00,Monday
9,111394503.83198103
2,2, 1, 2, 0, 8,10.00,20.00,Monday
9,97179015.75687143
2,2, 1, 2, 0, 8,20.00,30.00,Monday
9,58836669.78120811
2,2, 1, 2, 0, 8,30.00,40.00,Monday
9,74637403.83723821
2,2, 1, 2, 0, 8,40.00,50.00,Monday
9,55466286.56000275
2,2, 1, 2, 0, 8,50.00,60.00,Monday
9,66371821.55734671
2,2, 1, 2, 0, 9, 0.00,10.00,Monday
9,97340748.16291346
2,2, 1, 2, 0, 9,10.00,20.00,Monday
9,96435544.0185309
2,2, 1, 2, 0, 9,20.00,30.00,Monday
9,86645149.81422637
2,2, 1, 2, 0, 9,30.00,40.00,Monday
9,77668376.65464264
2,2, 1, 2, 0, 9,40.00,50.00,Monday
9,86776962.65317635
2,2, 1, 2, 0, 9,50.00,60.00,Monday
9,73533436.63455248
2,2, 1, 2, 0,10, 0.00,10.00,Monday
9,156494212.21202517
2,2, 1, 2, 0,10,10.00,20.00,Monday
9,165776680.5884873
2,2, 1, 2, 0,10,20.00,30.00,Monday
9,154409779.87330273
2,2, 1, 2, 0,10,30.00,40.00,Monday
9,145064900.25325644
2,2, 1, 2, 0,10,40.00,50.00,Monday
9,161722178.7686664
2,2, 1, 2, 0,10,50.00,60.00,Monday
9,152526169.67240945
2,2, 1, 2, 0,11, 0.00,10.00,Monday
9,146221085.11789837
2,2, 1, 2, 0,11,10.00,20.00,Monday
9,142309166.5518196
2,2, 1, 2, 0,11,20.00,30.00,Monday
9,132704786.42067902
2,2, 1, 2, 0,11,30.00,40.00,Monday
9,132532875.00727017
2,2, 1, 2, 0,11,40.00,50.00,Monday
9,134264988.95673037
2,2, 1, 2, 0,11,50.00,60.00,Monday
9,139186089.8264754
2,2, 1, 2, 0,12, 0.00,10.00,Monday
9,131988153.36541033
2,2, 1, 2, 0,12,10.00,20.00,Monday
9,125016119.75171742
2,2, 1, 2, 0,12,20.00,30.00,Monday
9,122082611.32568863
2,2, 1, 2, 0,12,30.00,40.00,Monday
9,127521200.85733262
2,2, 1, 2, 0,12,40.00,50.00,Monday
9,117343817.92622815
2,2, 1, 2, 0,12,50.00,60.00,Monday
9,130482834.98714116
2,2, 1, 2, 0,13, 0.00,10.00,Monday
9,106785697.76672497
2,2, 1, 2, 0,13,10.00,20.00,Monday
9,120805250.81883839
2,2, 1, 2, 0,13,20.00,30.00,Monday
9,119206903.82041799
2,2, 1, 2, 0,13,30.00,40.00,Monday
9,120416887.30928175
2,2, 1, 2, 0,13,40.00,50.00,Monday
9,119278016.21359488
2,2, 1, 2, 0,13,50.00,60.00,Monday
9,113266467.03255653
2,2, 1, 2, 0,14, 0.00,10.00,Monday
9,111010105.26897128
2,2, 1, 2, 0,14,10.00,20.00,Monday
9,117512890.77512173
2,2, 1, 2, 0,14,20.00,30.00,Monday
9,108220536.95014434
2,2, 1, 2, 0,14,30.00,40.00,Monday
9,122634610.2972711
2,2, 1, 2, 0,14,40.00,50.00,Monday
9,119831348.27312326
2,2, 1, 2, 0,14,50.00,60.00,Monday
9,119088081.91901426
2,2, 1, 2, 0,15, 0.00,10.00,Monday
9,113684520.35990137
2,2, 1, 2, 0,15,10.00,20.00,Monday
9,122604390.34409256
2,2, 1, 2, 0,15,20.00,30.00,Monday
9,110405284.26327188
2,2, 1, 2, 0,15,30.00,40.00,Monday
9,118935958.60551068
2,2, 1, 2, 0,15,40.00,50.00,Monday
9,117496011.48891078
2,2, 1, 2, 0,15,50.00,60.00,Monday
9,119475189.19103336
2,2, 1, 2, 0,16, 0.00,10.00,Monday
9,111834068.03499702
2,2, 1, 2, 0,16,10.00,20.00,Monday
9,129466948.51080969
2,2, 1, 2, 0,16,20.00,30.00,Monday
9,107539732.22809128
2,2, 1, 2, 0,16,30.00,40.00,Monday
9,138929864.99436593
2,2, 1, 2, 0,16,40.00,50.00,Monday
9,128031647.98388073
2,2, 1, 2, 0,16,50.00,60.00,Monday
9,129839733.09871365
2,2, 1, 2, 0,17, 0.00,10.00,Monday
9,130533138.14796579
2,2, 1, 2, 0,17,10.00,20.00,Monday
9,130293400.04030317
2,2, 1, 2, 0,17,20.00,30.00,Monday
9,132363686.7505026
2,2, 1, 2, 0,17,30.00,40.00,Monday
9,130709102.13861917
2,2, 1, 2, 0,17,40.00,50.00,Monday
9,133028935.86962546
2,2, 1, 2, 0,17,50.00,60.00,Monday
9,135165035.89477777
2,2, 1, 2, 0,18, 0.00,10.00,Monday
9,125847971.12652591
2,2, 1, 2, 0,18,10.00,20.00,Monday
9,134412361.23599616
2,2, 1, 2, 0,18,20.00,30.00,Monday
9,136387052.84998363
2,2, 1, 2, 0,18,30.00,40.00,Monday
9,136094773.22027472
2,2, 1, 2, 0,18,40.00,50.00,Monday
9,133023844.2509263
2,2, 1, 2, 0,18,50.00,60.00,Monday
9,134552747.90536094
2,2, 1, 2, 0,19, 0.00,10.00,Monday
9,134741077.8713825
2,2, 1, 2, 0,19,10.00,20.00,Monday
9,135906136.4196479
2,2, 1, 2, 0,19,20.00,30.00,Monday
9,134126825.84622698
2,2, 1, 2, 0,19,30.00,40.00,Monday
9,136245222.99001032
2,2, 1, 2, 0,19,40.00,50.00,Monday
9,132332098.35262805
2,2, 1, 2, 0,19,50.00,60.00,Monday
9,136157035.9992127
2,2, 1, 2, 0,20, 0.00,10.00,Monday
9,118423990.30137895
2,2, 1, 2, 0,20,10.00,20.00,Monday
9,126469701.41856793
2,2, 1, 2, 0,20,20.00,30.00,Monday
9,124685897.82093523
2,2, 1, 2, 0,20,30.00,40.00,Monday
9,124049446.20421429
2,2, 1, 2, 0,20,40.00,50.00,Monday
9,124238754.42864026
2,2, 1, 2, 0,20,50.00,60.00,Monday
9,124005037.81272739
2,2, 1, 2, 0,21, 0.00,10.00,Monday
9,123316255.67653829
2,2, 1, 2, 0,21,10.00,20.00,Monday
9,122695510.70798516
2,2, 1, 2, 0,21,20.00,30.00,Monday
9,121918770.05500112
2,2, 1, 2, 0,21,30.00,40.00,Monday
9,120994020.71107417
2,2, 1, 2, 0,21,40.00,50.00,Monday
9,119606671.40812197
2,2, 1, 2, 0,21,50.00,60.00,Monday
9,119211631.29558688
2,2, 1, 2, 0,22, 0.00,10.00,Monday
9,1290079.1397195188
2,2, 1, 2, 0,22,10.00,20.00,Monday
9,1704058.2243673091
2,2, 1, 2, 0,22,20.00,30.00,Monday
9,1290079.1397195188
2,2, 1, 2, 0,22,30.00,40.00,Monday
9,3596313.001585055
2,2, 1, 2, 0,22,40.00,50.00,Monday
9,7278983.6630156385
2,2, 1, 2, 0,22,50.00,60.00,Monday
9,10547363.071550678
2,2, 1, 2, 0,23, 0.00,10.00,Monday
9,12747972.947038904
2,2, 1, 2, 0,23,10.00,20.00,Monday
9,13873181.497370653
2,2, 1, 2, 0,23,20.00,30.00,Monday
9,24549782.954024855
2,2, 1, 2, 0,23,30.00,40.00,Monday
9,28519641.890469212
2,2, 1, 2, 0,23,40.00,50.00,Monday
9,27313382.190766808
2,2, 1, 2, 0,23,50.00,60.00,Monday
9,28433503.844908748
2,2, 1, 2, 0,24, 0.00,10.00,Monday
9,32513521.40822942
2,2, 1, 2, 0,24,10.00,20.00,Monday
9,33711317.69848549
2,2, 1, 2, 0,24,20.00,30.00,Monday
9,34707338.8727434
2,2, 1, 2, 0,24,30.00,40.00,Monday
9,34817789.62122496
2,2, 1, 2, 0,24,40.00,50.00,Monday
9,35247370.66199218
2,2, 1, 2, 0,24,50.00,60.00,Monday
9,35611294.17455311
2,3, 1, 3, 0, 1, 0.00,10.00,Tuesday
9,37844148.83261542
2,3, 1, 3, 0, 1,10.00,20.00,Tuesday
9,37692902.42916153
2,3, 1, 3, 0, 1,20.00,30.00,Tuesday
9,37676963.5537815
2,3, 1, 3, 0, 1,30.00,40.00,Tuesday
9,37617549.096450165
2,3, 1, 3, 0, 1,40.00,50.00,Tuesday
9,37800636.852357775
2,3, 1, 3, 0, 1,50.00,60.00,Tuesday
9,37493788.124523684
2,3, 1, 3, 0, 2, 0.00,10.00,Tuesday
9,38347986.95644033
2,3, 1, 3, 0, 2,10.00,20.00,Tuesday
9,38824721.71457608
2,3, 1, 3, 0, 2,20.00,30.00,Tuesday
9,39216808.722968355
2,3, 1, 3, 0, 2,30.00,40.00,Tuesday
9,40000775.78710499
2,3, 1, 3, 0, 2,40.00,50.00,Tuesday
9,39955975.02491137
2,3, 1, 3, 0, 2,50.00,60.00,Tuesday
9,40307142.409944236
2,3, 1, 3, 0, 3, 0.00,10.00,Tuesday
9,40584991.78059603
2,3, 1, 3, 0, 3,10.00,20.00,Tuesday
9,41164363.032572255
2,3, 1, 3, 0, 3,20.00,30.00,Tuesday
9,40904515.768903546
2,3, 1, 3, 0, 3,30.00,40.00,Tuesday
9,41052229.297756486
2,3, 1, 3, 0, 3,40.00,50.00,Tuesday
9,41197284.06150568
2,3, 1, 3, 0, 3,50.00,60.00,Tuesday
9,41752958.20559891
2,3, 1, 3, 0, 4, 0.00,10.00,Tuesday
9,41383336.92166384
2,3, 1, 3, 0, 4,10.00,20.00,Tuesday
9,41379958.88360933
2,3, 1, 3, 0, 4,20.00,30.00,Tuesday
9,41371938.4191062
2,3, 1, 3, 0, 4,30.00,40.00,Tuesday
9,41522844.424425006
2,3, 1, 3, 0, 4,40.00,50.00,Tuesday
9,41605529.7813789
2,3, 1, 3, 0, 4,50.00,60.00,Tuesday
9,41347017.14065025
2,3, 1, 3, 0, 5, 0.00,10.00,Tuesday
9,41858258.93087555
2,3, 1, 3, 0, 5,10.00,20.00,Tuesday
9,42299343.10789596
2,3, 1, 3, 0, 5,20.00,30.00,Tuesday
9,43133580.79293188
2,3, 1, 3, 0, 5,30.00,40.00,Tuesday
9,43148395.12879962
2,3, 1, 3, 0, 5,40.00,50.00,Tuesday
9,43568744.67903509
2,3, 1, 3, 0, 5,50.00,60.00,Tuesday
9,43988755.51666098
2,3, 1, 3, 0, 6, 0.00,10.00,Tuesday
9,44700203.38389137
2,3, 1, 3, 0, 6,10.00,20.00,Tuesday
9,44627291.266926765
2,3, 1, 3, 0, 6,20.00,30.00,Tuesday
9,44968647.8840315
2,3, 1, 3, 0, 6,30.00,40.00,Tuesday
9,45313126.977492556
2,3, 1, 3, 0, 6,40.00,50.00,Tuesday
9,46059327.73178773
2,3, 1, 3, 0, 6,50.00,60.00,Tuesday
9,46013788.17929671
2,3, 1, 3, 0, 7, 0.00,10.00,Tuesday
9,56238187.17023108
2,3, 1, 3, 0, 7,10.00,20.00,Tuesday
9,52265449.70145407
2,3, 1, 3, 0, 7,20.00,30.00,Tuesday
9,48066917.96555881
2,3, 1, 3, 0, 7,30.00,40.00,Tuesday
9,46191828.56005044
2,3, 1, 3, 0, 7,40.00,50.00,Tuesday
9,49446150.17161947
2,3, 1, 3, 0, 7,50.00,60.00,Tuesday
9,47871993.941327356
2,3, 1, 3, 0, 8, 0.00,10.00,Tuesday
9,101173272.47041255
2,3, 1, 3, 0, 8,10.00,20.00,Tuesday
9,79707481.28902592
2,3, 1, 3, 0, 8,20.00,30.00,Tuesday
9,50603779.815773785
2,3, 1, 3, 0, 8,30.00,40.00,Tuesday
9,52418262.553463876
2,3, 1, 3, 0, 8,40.00,50.00,Tuesday
9,54470682.706689954
2,3, 1, 3, 0, 8,50.00,60.00,Tuesday
9,59542308.931767605
2,3, 1, 3, 0, 9, 0.00,10.00,Tuesday
9,92965608.87765466
2,3, 1, 3, 0, 9,10.00,20.00,Tuesday
9,97791485.65504366
2,3, 1, 3, 0, 9,20.00,30.00,Tuesday
9,60865495.48033843
2,3, 1, 3, 0, 9,30.00,40.00,Tuesday
9,65897545.699186794
2,3, 1, 3, 0, 9,40.00,50.00,Tuesday
9,67493023.73287986
2,3, 1, 3, 0, 9,50.00,60.00,Tuesday
9,60846205.75925365
2,3, 1, 3, 0,10, 0.00,10.00,Tuesday
9,123236132.56315932
2,3, 1, 3, 0,10,10.00,20.00,Tuesday
9,115529867.41467266
2,3, 1, 3, 0,10,20.00,30.00,Tuesday
9,115726118.84933282
2,3, 1, 3, 0,10,30.00,40.00,Tuesday
9,112293549.01978162
2,3, 1, 3, 0,10,40.00,50.00,Tuesday
9,119512745.28330842
2,3, 1, 3, 0,10,50.00,60.00,Tuesday
9,115356722.10171954
2,3, 1, 3, 0,11, 0.00,10.00,Tuesday
9,109087313.18622062
2,3, 1, 3, 0,11,10.00,20.00,Tuesday
9,106062994.10451001
2,3, 1, 3, 0,11,20.00,30.00,Tuesday
9,109337999.49425924
2,3, 1, 3, 0,11,30.00,40.00,Tuesday
9,107483046.98192236
2,3, 1, 3, 0,11,40.00,50.00,Tuesday
9,111378799.59035558
2,3, 1, 3, 0,11,50.00,60.00,Tuesday
9,109289801.4536694
2,3, 1, 3, 0,12, 0.00,10.00,Tuesday
9,103822154.12967546
2,3, 1, 3, 0,12,10.00,20.00,Tuesday
9,107735154.94677868
2,3, 1, 3, 0,12,20.00,30.00,Tuesday
9,101271445.86532901
2,3, 1, 3, 0,12,30.00,40.00,Tuesday
9,110530310.58295919
2,3, 1, 3, 0,12,40.00,50.00,Tuesday
9,108411947.45284717
2,3, 1, 3, 0,12,50.00,60.00,Tuesday
9,115656767.6599239
2,3, 1, 3, 0,13, 0.00,10.00,Tuesday
9,105325167.19186623
2,3, 1, 3, 0,13,10.00,20.00,Tuesday
9,103633760.3569842
2,3, 1, 3, 0,13,20.00,30.00,Tuesday
9,97333151.755751
2,3, 1, 3, 0,13,30.00,40.00,Tuesday
9,98104223.90649104
2,3, 1, 3, 0,13,40.00,50.00,Tuesday
9,98021847.27840734
2,3, 1, 3, 0,13,50.00,60.00,Tuesday
9,97836334.59882566
2,3, 1, 3, 0,14, 0.00,10.00,Tuesday
9,94818927.33585995
2,3, 1, 3, 0,14,10.00,20.00,Tuesday
9,98977528.56973189
2,3, 1, 3, 0,14,20.00,30.00,Tuesday
9,100085837.33325851
2,3, 1, 3, 0,14,30.00,40.00,Tuesday
9,97180420.77405442
2,3, 1, 3, 0,14,40.00,50.00,Tuesday
9,87821817.38381575
2,3, 1, 3, 0,14,50.00,60.00,Tuesday
9,102147081.16775233
2,3, 1, 3, 0,15, 0.00,10.00,Tuesday
9,76974264.61959855
2,3, 1, 3, 0,15,10.00,20.00,Tuesday
9,89170510.80916496
2,3, 1, 3, 0,15,20.00,30.00,Tuesday
9,84719189.56743267
2,3, 1, 3, 0,15,30.00,40.00,Tuesday
9,83280020.20488118
2,3, 1, 3, 0,15,40.00,50.00,Tuesday
9,82775023.61964674
2,3, 1, 3, 0,15,50.00,60.00,Tuesday
9,80854716.38434665
2,3, 1, 3, 0,16, 0.00,10.00,Tuesday
9,80001963.5255747
2,3, 1, 3, 0,16,10.00,20.00,Tuesday
9,81423103.32800989
2,3, 1, 3, 0,16,20.00,30.00,Tuesday
9,79187318.81963536
2,3, 1, 3, 0,16,30.00,40.00,Tuesday
9,77513601.42722207
2,3, 1, 3, 0,16,40.00,50.00,Tuesday
9,82718536.42147109
2,3, 1, 3, 0,16,50.00,60.00,Tuesday
9,80590809.19121245
2,3, 1, 3, 0,17, 0.00,10.00,Tuesday
9,83633679.36334634
2,3, 1, 3, 0,17,10.00,20.00,Tuesday
9,81884868.33579125
2,3, 1, 3, 0,17,20.00,30.00,Tuesday
9,84256923.66765337
2,3, 1, 3, 0,17,30.00,40.00,Tuesday
9,81893128.52133685
2,3, 1, 3, 0,17,40.00,50.00,Tuesday
9,83514586.98487046
2,3, 1, 3, 0,17,50.00,60.00,Tuesday
9,80274346.50814696
2,3, 1, 3, 0,18, 0.00,10.00,Tuesday
9,82410061.82990804
2,3, 1, 3, 0,18,10.00,20.00,Tuesday
9,83028817.0502749
2,3, 1, 3, 0,18,20.00,30.00,Tuesday
9,81669873.96816604
2,3, 1, 3, 0,18,30.00,40.00,Tuesday
9,84851010.06355383
2,3, 1, 3, 0,18,40.00,50.00,Tuesday
9,81485773.266763
2,3, 1, 3, 0,18,50.00,60.00,Tuesday
9,86116189.71523978
2,3, 1, 3, 0,19, 0.00,10.00,Tuesday
9,82569733.14262836
2,3, 1, 3, 0,19,10.00,20.00,Tuesday
9,86263640.73083903
2,3, 1, 3, 0,19,20.00,30.00,Tuesday
9,81547821.80817005
2,3, 1, 3, 0,19,30.00,40.00,Tuesday
9,84596944.30602475
2,3, 1, 3, 0,19,40.00,50.00,Tuesday
9,86057531.72225754
2,3, 1, 3, 0,19,50.00,60.00,Tuesday
9,79218025.49455892
2,3, 1, 3, 0,20, 0.00,10.00,Tuesday
9,81455547.51033865
2,3, 1, 3, 0,20,10.00,20.00,Tuesday
9,71530328.75466196
2,3, 1, 3, 0,20,20.00,30.00,Tuesday
9,88361907.39919272
2,3, 1, 3, 0,20,30.00,40.00,Tuesday
9,68612733.8411176
2,3, 1, 3, 0,20,40.00,50.00,Tuesday
9,81394928.99410951
2,3, 1, 3, 0,20,50.00,60.00,Tuesday
9,81744691.73139504
2,3, 1, 3, 0,21, 0.00,10.00,Tuesday
9,83424279.53115916
2,3, 1, 3, 0,21,10.00,20.00,Tuesday
9,86452462.3572303
2,3, 1, 3, 0,21,20.00,30.00,Tuesday
9,88741806.14643662
2,3, 1, 3, 0,21,30.00,40.00,Tuesday
9,89343182.82485643
2,3, 1, 3, 0,21,40.00,50.00,Tuesday
9,89732230.4230008
2,3, 1, 3, 0,21,50.00,60.00,Tuesday
9,91121868.42885841
2,3, 1, 3, 0,22, 0.00,10.00,Tuesday
9,1290079.1397195188
2,3, 1, 3, 0,22,10.00,20.00,Tuesday
9,1703993.4325159886
2,3, 1, 3, 0,22,20.00,30.00,Tuesday
9,1290079.1397195188
2,3, 1, 3, 0,22,30.00,40.00,Tuesday
9,2636239.7682035808
2,3, 1, 3, 0,22,40.00,50.00,Tuesday
9,3661457.8621518575
2,3, 1, 3, 0,22,50.00,60.00,Tuesday
9,4991912.827484281
2,3, 1, 3, 0,23, 0.00,10.00,Tuesday
9,8452534.503005225
2,3, 1, 3, 0,23,10.00,20.00,Tuesday
9,8918346.899384161
2,3, 1, 3, 0,23,20.00,30.00,Tuesday
9,9318961.45430219
2,3, 1, 3, 0,23,30.00,40.00,Tuesday
9,16147791.033012126
2,3, 1, 3, 0,23,40.00,50.00,Tuesday
9,22268067.1287551
2,3, 1, 3, 0,23,50.00,60.00,Tuesday
9,15779536.330786048
2,3, 1, 3, 0,24, 0.00,10.00,Tuesday
9,21215289.776097354
2,3, 1, 3, 0,24,10.00,20.00,Tuesday
9,22564350.253408886
2,3, 1, 3, 0,24,20.00,30.00,Tuesday
9,23665996.745195623
2,3, 1, 3, 0,24,30.00,40.00,Tuesday
9,23879163.50449558
2,3, 1, 3, 0,24,40.00,50.00,Tuesday
9,24410116.66155526
2,3, 1, 3, 0,24,50.00,60.00,Tuesday
9,24873937.09678324
2,4, 1, 4, 0, 1, 0.00,10.00,Wednesday
9,26960890.791848354
2,4, 1, 4, 0, 1,10.00,20.00,Wednesday
9,26772636.614208575
2,4, 1, 4, 0, 1,20.00,30.00,Wednesday
9,26726725.512365405
2,4, 1, 4, 0, 1,30.00,40.00,Wednesday
9,26642251.27313556
2,4, 1, 4, 0, 1,40.00,50.00,Wednesday
9,26596111.938060004
2,4, 1, 4, 0, 1,50.00,60.00,Wednesday
9,26674610.501262877
2,4, 1, 4, 0, 2, 0.00,10.00,Wednesday
9,27436336.178833593
2,4, 1, 4, 0, 2,10.00,20.00,Wednesday
9,27860698.62181057
2,4, 1, 4, 0, 2,20.00,30.00,Wednesday
9,28171507.275076676
2,4, 1, 4, 0, 2,30.00,40.00,Wednesday
9,28874679.69170515
2,4, 1, 4, 0, 2,40.00,50.00,Wednesday
9,28742893.303355426
2,4, 1, 4, 0, 2,50.00,60.00,Wednesday
9,29006714.825080577
2,4, 1, 4, 0, 3, 0.00,10.00,Wednesday
9,29831235.227942567
2,4, 1, 4, 0, 3,10.00,20.00,Wednesday
9,30770278.393645085
2,4, 1, 4, 0, 3,20.00,30.00,Wednesday
9,30840002.264071453
2,4, 1, 4, 0, 3,30.00,40.00,Wednesday
9,31319839.16853686
2,4, 1, 4, 0, 3,40.00,50.00,Wednesday
9,31797502.841386992
2,4, 1, 4, 0, 3,50.00,60.00,Wednesday
9,32633983.935718797
2,4, 1, 4, 0, 4, 0.00,10.00,Wednesday
9,31919249.792847566
2,4, 1, 4, 0, 4,10.00,20.00,Wednesday
9,31267572.80219294
2,4, 1, 4, 0, 4,20.00,30.00,Wednesday
9,30639731.960108723
2,4, 1, 4, 0, 4,30.00,40.00,Wednesday
9,30007138.097222064
2,4, 1, 4, 0, 4,40.00,50.00,Wednesday
9,29773928.595069055
2,4, 1, 4, 0, 4,50.00,60.00,Wednesday
9,28723997.60569307
2,4, 1, 4, 0, 5, 0.00,10.00,Wednesday
9,29935222.095370714
2,4, 1, 4, 0, 5,10.00,20.00,Wednesday
9,30930316.889723558
2,4, 1, 4, 0, 5,20.00,30.00,Wednesday
9,32315011.901341714
2,4, 1, 4, 0, 5,30.00,40.00,Wednesday
9,32893803.402272057
2,4, 1, 4, 0, 5,40.00,50.00,Wednesday
9,33892185.47371163
2,4, 1, 4, 0, 5,50.00,60.00,Wednesday
9,34900279.9564473
2,4, 1, 4, 0, 6, 0.00,10.00,Wednesday
9,35930208.69514558
2,4, 1, 4, 0, 6,10.00,20.00,Wednesday
9,35817400.49826795
2,4, 1, 4, 0, 6,20.00,30.00,Wednesday
9,36061717.34256751
2,4, 1, 4, 0, 6,30.00,40.00,Wednesday
9,36295270.95533985
2,4, 1, 4, 0, 6,40.00,50.00,Wednesday
9,36784555.96451367
2,4, 1, 4, 0, 6,50.00,60.00,Wednesday
9,36884549.552538246
2,4, 1, 4, 0, 7, 0.00,10.00,Wednesday
9,47854313.85332311
2,4, 1, 4, 0, 7,10.00,20.00,Wednesday
9,42388809.49598618
2,4, 1, 4, 0, 7,20.00,30.00,Wednesday
9,35711878.32870875
2,4, 1, 4, 0, 7,30.00,40.00,Wednesday
9,39431853.44483173
2,4, 1, 4, 0, 7,40.00,50.00,Wednesday
9,35421364.5814572
2,4, 1, 4, 0, 7,50.00,60.00,Wednesday
9,34654401.02216242
2,4, 1, 4, 0, 8, 0.00,10.00,Wednesday
9,90550427.32717213
2,4, 1, 4, 0, 8,10.00,20.00,Wednesday
9,22966601.17412812
2,4, 1, 4, 0, 8,20.00,30.00,Wednesday
9,44125670.38619535
2,4, 1, 4, 0, 8,30.00,40.00,Wednesday
9,52104006.36526532
2,4, 1, 4, 0, 8,40.00,50.00,Wednesday
9,50807003.14847269
2,4, 1, 4, 0, 8,50.00,60.00,Wednesday
9,42560330.36463179
2,4, 1, 4, 0, 9, 0.00,10.00,Wednesday
9,82556998.29417288
2,4, 1, 4, 0, 9,10.00,20.00,Wednesday
9,78912739.71324736
2,4, 1, 4, 0, 9,20.00,30.00,Wednesday
9,60561561.65145342
2,4, 1, 4, 0, 9,30.00,40.00,Wednesday
9,57103265.64340494
2,4, 1, 4, 0, 9,40.00,50.00,Wednesday
9,53305621.80496409
2,4, 1, 4, 0, 9,50.00,60.00,Wednesday
9,55831192.5117661
2,4, 1, 4, 0,10, 0.00,10.00,Wednesday
9,108861499.12379524
2,4, 1, 4, 0,10,10.00,20.00,Wednesday
9,104827028.73882563
2,4, 1, 4, 0,10,20.00,30.00,Wednesday
9,97120491.84521496
2,4, 1, 4, 0,10,30.00,40.00,Wednesday
9,98728093.48344122
2,4, 1, 4, 0,10,40.00,50.00,Wednesday
9,98328000.3229138
2,4, 1, 4, 0,10,50.00,60.00,Wednesday
9,98118791.43558776
2,4, 1, 4, 0,11, 0.00,10.00,Wednesday
9,85989484.5117373
2,4, 1, 4, 0,11,10.00,20.00,Wednesday
9,92592514.55732594
2,4, 1, 4, 0,11,20.00,30.00,Wednesday
9,92016891.89812632
2,4, 1, 4, 0,11,30.00,40.00,Wednesday
9,89728419.09720545
2,4, 1, 4, 0,11,40.00,50.00,Wednesday
9,82343087.4675404
2,4, 1, 4, 0,11,50.00,60.00,Wednesday
9,95039353.02734421
2,4, 1, 4, 0,12, 0.00,10.00,Wednesday
9,71295430.18730657
2,4, 1, 4, 0,12,10.00,20.00,Wednesday
9,84029947.55165994
2,4, 1, 4, 0,12,20.00,30.00,Wednesday
9,81593275.88029589
2,4, 1, 4, 0,12,30.00,40.00,Wednesday
9,78869206.53231548
2,4, 1, 4, 0,12,40.00,50.00,Wednesday
9,83358252.29220402
2,4, 1, 4, 0,12,50.00,60.00,Wednesday
9,84101587.82858837
2,4, 1, 4, 0,13, 0.00,10.00,Wednesday
9,69908070.60698976
2,4, 1, 4, 0,13,10.00,20.00,Wednesday
9,79163950.50372726
2,4, 1, 4, 0,13,20.00,30.00,Wednesday
9,79556626.7062774
2,4, 1, 4, 0,13,30.00,40.00,Wednesday
9,74910002.77570713
2,4, 1, 4, 0,13,40.00,50.00,Wednesday
9,80647767.51219894
2,4, 1, 4, 0,13,50.00,60.00,Wednesday
9,82352736.12779143
2,4, 1, 4, 0,14, 0.00,10.00,Wednesday
9,68562209.9905034
2,4, 1, 4, 0,14,10.00,20.00,Wednesday
9,88945557.66738138
2,4, 1, 4, 0,14,20.00,30.00,Wednesday
9,77295333.60503703
2,4, 1, 4, 0,14,30.00,40.00,Wednesday
9,77084332.10896291
2,4, 1, 4, 0,14,40.00,50.00,Wednesday
9,72339220.62949312
2,4, 1, 4, 0,14,50.00,60.00,Wednesday
9,77945477.15538281
2,4, 1, 4, 0,15, 0.00,10.00,Wednesday
9,78433975.79313572
2,4, 1, 4, 0,15,10.00,20.00,Wednesday
9,78792636.63160016
2,4, 1, 4, 0,15,20.00,30.00,Wednesday
9,78920144.5763044
2,4, 1, 4, 0,15,30.00,40.00,Wednesday
9,80452417.65942627
2,4, 1, 4, 0,15,40.00,50.00,Wednesday