Program Version,EnergyPlus, Version 23.2.0-7636e6b3e9, YMD=2025.01.19 15:45
1,5,Environment Title[],Latitude[deg],Longitude[deg],Time Zone[],Elevation[m]
2,8,Day of Simulation[],Month[],Day of Month[],DST Indicator[1=yes 0=no],Hour[],StartMinute[],EndMinute[],DayType
3,5,Cumulative Day of Simulation[],Month[],Day of Month[],DST Indicator[1=yes 0=no],DayType  ! When Daily Report Variables Requested
4,2,Cumulative Days of Simulation[],Month[]  ! When Monthly Report Variables Requested
5,1,Cumulative Days of Simulation[] ! When Run Period Report Variables Requested
6,1,Calendar Year of Simulation[] ! When Annual Report Variables Requested
8,1,Electricity:Facility [J] !TimeStep
End of Data Dictionary
1,RUN PERIOD 1,  45.52, -73.42,  -5.00,  27.40
2,1, 1, 1, 0, 1, 0.00,10.00,Sunday
8,75707923.36024319
2,1, 1, 1, 0, 1,10.00,20.00,Sunday
8,73786497.16180629
2,1, 1, 1, 0, 1,20.00,30.00,Sunday
8,70998663.87734504
2,1, 1, 1, 0, 1,30.00,40.00,Sunday
8,68636185.25028418
2,1, 1, 1, 0, 1,40.00,50.00,Sunday
8,65594771.94384157
2,1, 1, 1, 0, 1,50.00,60.00,Sunday
8,62686972.41897591
2,1, 1, 1, 0, 2, 0.00,10.00,Sunday
8,64156620.279190816
2,1, 1, 1, 0, 2,10.00,20.00,Sunday
8,64822248.0009363
2,1, 1, 1, 0, 2,20.00,30.00,Sunday
8,64916269.87673933
2,1, 1, 1, 0, 2,30.00,40.00,Sunday
8,64823632.97827988
2,1, 1, 1, 0, 2,40.00,50.00,Sunday
8,64932211.625292756
2,1, 1, 1, 0, 2,50.00,60.00,Sunday
8,65260220.09483934
2,1, 1, 1, 0, 3, 0.00,10.00,Sunday
8,66496261.411505364
2,1, 1, 1, 0, 3,10.00,20.00,Sunday
8,66758049.77079908
2,1, 1, 1, 0, 3,20.00,30.00,Sunday
8,67218598.89501214
2,1, 1, 1, 0, 3,30.00,40.00,Sunday
8,67864191.49094394
2,1, 1, 1, 0, 3,40.00,50.00,Sunday
8,68430407.41691293
2,1, 1, 1, 0, 3,50.00,60.00,Sunday
8,68486399.14872693
2,1, 1, 1, 0, 4, 0.00,10.00,Sunday
8,65512238.4078104
2,1, 1, 1, 0, 4,10.00,20.00,Sunday
8,62399620.279039375
2,1, 1, 1, 0, 4,20.00,30.00,Sunday
8,59257520.60441933
2,1, 1, 1, 0, 4,30.00,40.00,Sunday
8,55486104.865095735
2,1, 1, 1, 0, 4,40.00,50.00,Sunday
8,52066352.624951854
2,1, 1, 1, 0, 4,50.00,60.00,Sunday
8,48764293.43778974
2,1, 1, 1, 0, 5, 0.00,10.00,Sunday
8,50426324.40486102
2,1, 1, 1, 0, 5,10.00,20.00,Sunday
8,51249249.51851595
2,1, 1, 1, 0, 5,20.00,30.00,Sunday
8,52453173.00854498
2,1, 1, 1, 0, 5,30.00,40.00,Sunday
8,53783632.59129973
2,1, 1, 1, 0, 5,40.00,50.00,Sunday
8,55273160.32815694
2,1, 1, 1, 0, 5,50.00,60.00,Sunday
8,56043373.20548164
2,1, 1, 1, 0, 6, 0.00,10.00,Sunday
8,55290928.5411808
2,1, 1, 1, 0, 6,10.00,20.00,Sunday
8,54579021.838679954
2,1, 1, 1, 0, 6,20.00,30.00,Sunday
8,54051885.47910178
2,1, 1, 1, 0, 6,30.00,40.00,Sunday
8,52770075.1549081
2,1, 1, 1, 0, 6,40.00,50.00,Sunday
8,51922653.516358964
2,1, 1, 1, 0, 6,50.00,60.00,Sunday
8,51184365.729260005
2,1, 1, 1, 0, 7, 0.00,10.00,Sunday
8,48775374.61264465
2,1, 1, 1, 0, 7,10.00,20.00,Sunday
8,45563256.80745645
2,1, 1, 1, 0, 7,20.00,30.00,Sunday
8,42807024.51318775
2,1, 1, 1, 0, 7,30.00,40.00,Sunday
8,40173244.41911181
2,1, 1, 1, 0, 7,40.00,50.00,Sunday
8,37799874.409489974
2,1, 1, 1, 0, 7,50.00,60.00,Sunday
8,34649720.700638615
2,1, 1, 1, 0, 8, 0.00,10.00,Sunday
8,36209004.82541705
2,1, 1, 1, 0, 8,10.00,20.00,Sunday
8,37816119.521673605
2,1, 1, 1, 0, 8,20.00,30.00,Sunday
8,39659628.28001884
2,1, 1, 1, 0, 8,30.00,40.00,Sunday
8,40554680.969128914
2,1, 1, 1, 0, 8,40.00,50.00,Sunday
8,41802521.178627044
2,1, 1, 1, 0, 8,50.00,60.00,Sunday
8,43046021.013399154
2,1, 1, 1, 0, 9, 0.00,10.00,Sunday
8,45425578.99691055
2,1, 1, 1, 0, 9,10.00,20.00,Sunday
8,47221554.842299424
2,1, 1, 1, 0, 9,20.00,30.00,Sunday
8,49499517.80063045
2,1, 1, 1, 0, 9,30.00,40.00,Sunday
8,51699594.43029768
2,1, 1, 1, 0, 9,40.00,50.00,Sunday
8,54013482.01948725
2,1, 1, 1, 0, 9,50.00,60.00,Sunday
8,55513968.8868231
2,1, 1, 1, 0,10, 0.00,10.00,Sunday
8,98507220.07910082
2,1, 1, 1, 0,10,10.00,20.00,Sunday
8,41995289.79461552
2,1, 1, 1, 0,10,20.00,30.00,Sunday
8,74994248.72544926
2,1, 1, 1, 0,10,30.00,40.00,Sunday
8,68761471.88711117
2,1, 1, 1, 0,10,40.00,50.00,Sunday
8,68399406.61211012
2,1, 1, 1, 0,10,50.00,60.00,Sunday
8,68968701.02264069
2,1, 1, 1, 0,11, 0.00,10.00,Sunday
8,107748524.49349457
2,1, 1, 1, 0,11,10.00,20.00,Sunday
8,102873093.26298442
2,1, 1, 1, 0,11,20.00,30.00,Sunday
8,89599530.08737707
2,1, 1, 1, 0,11,30.00,40.00,Sunday
8,94015484.38218008
2,1, 1, 1, 0,11,40.00,50.00,Sunday
8,97879821.50043805
2,1, 1, 1, 0,11,50.00,60.00,Sunday
8,101253654.74451384
2,1, 1, 1, 0,12, 0.00,10.00,Sunday
8,186634161.63475904
2,1, 1, 1, 0,12,10.00,20.00,Sunday
8,186363447.4656291
2,1, 1, 1, 0,12,20.00,30.00,Sunday
8,186835212.6967184
2,1, 1, 1, 0,12,30.00,40.00,Sunday
8,186865131.041245
2,1, 1, 1, 0,12,40.00,50.00,Sunday
8,188456144.6785248
2,1, 1, 1, 0,12,50.00,60.00,Sunday
8,189485479.19404632
2,1, 1, 1, 0,13, 0.00,10.00,Sunday
8,184380003.34394538
2,1, 1, 1, 0,13,10.00,20.00,Sunday
8,183045674.39158642
2,1, 1, 1, 0,13,20.00,30.00,Sunday
8,182140464.5912248
2,1, 1, 1, 0,13,30.00,40.00,Sunday
8,181381305.1835841
2,1, 1, 1, 0,13,40.00,50.00,Sunday
8,180885744.12732887
2,1, 1, 1, 0,13,50.00,60.00,Sunday
8,180254348.7291194
2,1, 1, 1, 0,14, 0.00,10.00,Sunday
8,180924309.36446753
2,1, 1, 1, 0,14,10.00,20.00,Sunday
8,181464671.1368352
2,1, 1, 1, 0,14,20.00,30.00,Sunday
8,182717992.87827888
2,1, 1, 1, 0,14,30.00,40.00,Sunday
8,184687004.68768403
2,1, 1, 1, 0,14,40.00,50.00,Sunday
8,185372300.44578072
2,1, 1, 1, 0,14,50.00,60.00,Sunday
8,186804459.46473426
2,1, 1, 1, 0,15, 0.00,10.00,Sunday
8,190067185.4329488
2,1, 1, 1, 0,15,10.00,20.00,Sunday
8,191583911.77794445
2,1, 1, 1, 0,15,20.00,30.00,Sunday
8,193830717.2365444
2,1, 1, 1, 0,15,30.00,40.00,Sunday
8,196595213.85803282
2,1, 1, 1, 0,15,40.00,50.00,Sunday
8,198374698.58233404
2,1, 1, 1, 0,15,50.00,60.00,Sunday
8,200903596.95117328
2,1, 1, 1, 0,16, 0.00,10.00,Sunday
8,202325568.66870177
2,1, 1, 1, 0,16,10.00,20.00,Sunday
8,202398232.95228273
2,1, 1, 1, 0,16,20.00,30.00,Sunday
8,202421404.6689081
2,1, 1, 1, 0,16,30.00,40.00,Sunday
8,202540849.7471678
2,1, 1, 1, 0,16,40.00,50.00,Sunday
8,202698970.09820545
2,1, 1, 1, 0,16,50.00,60.00,Sunday
8,203022810.2687272
2,1, 1, 1, 0,17, 0.00,10.00,Sunday
8,202334678.24107248
2,1, 1, 1, 0,17,10.00,20.00,Sunday
8,200658588.60038805
2,1, 1, 1, 0,17,20.00,30.00,Sunday
8,198340711.9686606
2,1, 1, 1, 0,17,30.00,40.00,Sunday
8,195939564.0186223
2,1, 1, 1, 0,17,40.00,50.00,Sunday
8,193282545.61677298
2,1, 1, 1, 0,17,50.00,60.00,Sunday
8,190557880.5360961
2,1, 1, 1, 0,18, 0.00,10.00,Sunday
8,191140746.4692978
2,1, 1, 1, 0,18,10.00,20.00,Sunday
8,190500494.7617505
2,1, 1, 1, 0,18,20.00,30.00,Sunday
8,189150701.59028664
2,1, 1, 1, 0,18,30.00,40.00,Sunday
8,188288807.29633188
2,1, 1, 1, 0,18,40.00,50.00,Sunday
8,187561423.46007013
2,1, 1, 1, 0,18,50.00,60.00,Sunday
8,186482424.6003082
2,1, 1, 1, 0,19, 0.00,10.00,Sunday
8,184582797.78733206
2,1, 1, 1, 0,19,10.00,20.00,Sunday
8,185696186.3755832
2,1, 1, 1, 0,19,20.00,30.00,Sunday
8,186911483.59817877
2,1, 1, 1, 0,19,30.00,40.00,Sunday
8,187099412.2116036
2,1, 1, 1, 0,19,40.00,50.00,Sunday
8,188324281.82387763
2,1, 1, 1, 0,19,50.00,60.00,Sunday
8,189077483.89644137
2,1, 1, 1, 0,20, 0.00,10.00,Sunday
8,24388023.650352344
2,1, 1, 1, 0,20,10.00,20.00,Sunday
8,37130163.78641369
2,1, 1, 1, 0,20,20.00,30.00,Sunday
8,54563927.612405114
2,1, 1, 1, 0,20,30.00,40.00,Sunday
8,66282123.54596484
2,1, 1, 1, 0,20,40.00,50.00,Sunday
8,67251739.19522037
2,1, 1, 1, 0,20,50.00,60.00,Sunday
8,67101665.1336269
2,1, 1, 1, 0,21, 0.00,10.00,Sunday
8,73193740.14049716
2,1, 1, 1, 0,21,10.00,20.00,Sunday
8,74441708.00876516
2,1, 1, 1, 0,21,20.00,30.00,Sunday
8,73382675.55818515
2,1, 1, 1, 0,21,30.00,40.00,Sunday
8,72766923.58382303
2,1, 1, 1, 0,21,40.00,50.00,Sunday
8,71984451.64618747
2,1, 1, 1, 0,21,50.00,60.00,Sunday
8,71642030.91334231
2,1, 1, 1, 0,22, 0.00,10.00,Sunday
8,74102007.96619198
2,1, 1, 1, 0,22,10.00,20.00,Sunday
8,74757403.97086413
2,1, 1, 1, 0,22,20.00,30.00,Sunday
8,74989375.39522071
2,1, 1, 1, 0,22,30.00,40.00,Sunday
8,75718415.42527278
2,1, 1, 1, 0,22,40.00,50.00,Sunday
8,75256801.6391948
2,1, 1, 1, 0,22,50.00,60.00,Sunday
8,75305760.36896811
2,1, 1, 1, 0,23, 0.00,10.00,Sunday
8,75840836.23727919
2,1, 1, 1, 0,23,10.00,20.00,Sunday
8,76013485.50375177
2,1, 1, 1, 0,23,20.00,30.00,Sunday
8,74910899.99318935
2,1, 1, 1, 0,23,30.00,40.00,Sunday
8,74345263.99957424
2,1, 1, 1, 0,23,40.00,50.00,Sunday
8,73749639.46693216
2,1, 1, 1, 0,23,50.00,60.00,Sunday
8,73695687.76145874
2,1, 1, 1, 0,24, 0.00,10.00,Sunday
8,75815555.36498372
2,1, 1, 1, 0,24,10.00,20.00,Sunday
8,78111247.03237633
2,1, 1, 1, 0,24,20.00,30.00,Sunday
8,80346404.63825057
2,1, 1, 1, 0,24,30.00,40.00,Sunday
8,83134731.82754292
2,1, 1, 1, 0,24,40.00,50.00,Sunday
8,84790514.19232205
2,1, 1, 1, 0,24,50.00,60.00,Sunday
8,87002006.90882874
2,2, 1, 2, 0, 1, 0.00,10.00,Monday
8,87090235.36908051
2,2, 1, 2, 0, 1,10.00,20.00,Monday
8,87577108.6834776
2,2, 1, 2, 0, 1,20.00,30.00,Monday
8,86912240.7048006
2,2, 1, 2, 0, 1,30.00,40.00,Monday
8,86803973.40695566
2,2, 1, 2, 0, 1,40.00,50.00,Monday
8,86690569.69041993
2,2, 1, 2, 0, 1,50.00,60.00,Monday
8,87136776.39602526
2,2, 1, 2, 0, 2, 0.00,10.00,Monday
8,86772995.32388343
2,2, 1, 2, 0, 2,10.00,20.00,Monday
8,86920931.93634044
2,2, 1, 2, 0, 2,20.00,30.00,Monday
8,87063324.66473864
2,2, 1, 2, 0, 2,30.00,40.00,Monday
8,87769233.77784121
2,2, 1, 2, 0, 2,40.00,50.00,Monday
8,87347205.94203377
2,2, 1, 2, 0, 2,50.00,60.00,Monday
8,87487587.53444281
2,2, 1, 2, 0, 3, 0.00,10.00,Monday
8,87129409.89528501
2,2, 1, 2, 0, 3,10.00,20.00,Monday
8,87354844.52124704
2,2, 1, 2, 0, 3,20.00,30.00,Monday
8,86436356.04109567
2,2, 1, 2, 0, 3,30.00,40.00,Monday
8,86081095.09028363
2,2, 1, 2, 0, 3,40.00,50.00,Monday
8,85722880.92537105
2,2, 1, 2, 0, 3,50.00,60.00,Monday
8,85929325.65021488
2,2, 1, 2, 0, 4, 0.00,10.00,Monday
8,85554650.068248
2,2, 1, 2, 0, 4,10.00,20.00,Monday
8,85772214.95896474
2,2, 1, 2, 0, 4,20.00,30.00,Monday
8,85906554.94953553
2,2, 1, 2, 0, 4,30.00,40.00,Monday
8,86589806.26324399
2,2, 1, 2, 0, 4,40.00,50.00,Monday
8,86194092.53520992
2,2, 1, 2, 0, 4,50.00,60.00,Monday
8,86309050.07214077
2,2, 1, 2, 0, 5, 0.00,10.00,Monday
8,85529496.85417041
2,2, 1, 2, 0, 5,10.00,20.00,Monday
8,85117061.21414421
2,2, 1, 2, 0, 5,20.00,30.00,Monday
8,83938783.0690406
2,2, 1, 2, 0, 5,30.00,40.00,Monday
8,82946866.5032772
2,2, 1, 2, 0, 5,40.00,50.00,Monday
8,82075805.7152082
2,2, 1, 2, 0, 5,50.00,60.00,Monday
8,81550799.8885563
2,2, 1, 2, 0, 6, 0.00,10.00,Monday
8,82469186.56339963
2,2, 1, 2, 0, 6,10.00,20.00,Monday
8,83258538.10072383
2,2, 1, 2, 0, 6,20.00,30.00,Monday
8,84253106.11154746
2,2, 1, 2, 0, 6,30.00,40.00,Monday
8,85527297.7947093
2,2, 1, 2, 0, 6,40.00,50.00,Monday
8,86516176.87549554
2,2, 1, 2, 0, 6,50.00,60.00,Monday
8,87230358.83021046
2,2, 1, 2, 0, 7, 0.00,10.00,Monday
8,89269303.18152653
2,2, 1, 2, 0, 7,10.00,20.00,Monday
8,91466744.38143392
2,2, 1, 2, 0, 7,20.00,30.00,Monday
8,93494596.90727274
2,2, 1, 2, 0, 7,30.00,40.00,Monday
8,95082899.8275172
2,2, 1, 2, 0, 7,40.00,50.00,Monday
8,96976040.87237248
2,2, 1, 2, 0, 7,50.00,60.00,Monday
8,99047367.07564206
2,2, 1, 2, 0, 8, 0.00,10.00,Monday
8,160700711.4940211
2,2, 1, 2, 0, 8,10.00,20.00,Monday
8,139382113.38673443
2,2, 1, 2, 0, 8,20.00,30.00,Monday
8,131558708.96503167
2,2, 1, 2, 0, 8,30.00,40.00,Monday
8,128420649.48168704
2,2, 1, 2, 0, 8,40.00,50.00,Monday
8,127316235.21276559
2,2, 1, 2, 0, 8,50.00,60.00,Monday
8,126321856.79054824
2,2, 1, 2, 0, 9, 0.00,10.00,Monday
8,144324922.37704143
2,2, 1, 2, 0, 9,10.00,20.00,Monday
8,178747394.45733684
2,2, 1, 2, 0, 9,20.00,30.00,Monday
8,159177630.4750234
2,2, 1, 2, 0, 9,30.00,40.00,Monday
8,161285207.6004968
2,2, 1, 2, 0, 9,40.00,50.00,Monday
8,161588572.71032947
2,2, 1, 2, 0, 9,50.00,60.00,Monday
8,163435712.15432805
2,2, 1, 2, 0,10, 0.00,10.00,Monday
8,252492080.30943182
2,2, 1, 2, 0,10,10.00,20.00,Monday
8,247548070.71301055
2,2, 1, 2, 0,10,20.00,30.00,Monday
8,243880708.6729327
2,2, 1, 2, 0,10,30.00,40.00,Monday
8,239389745.2554079
2,2, 1, 2, 0,10,40.00,50.00,Monday
8,234931426.67837796
2,2, 1, 2, 0,10,50.00,60.00,Monday
8,231769712.71868345
2,2, 1, 2, 0,11, 0.00,10.00,Monday
8,224698572.8356814
2,2, 1, 2, 0,11,10.00,20.00,Monday
8,222292102.28243402
2,2, 1, 2, 0,11,20.00,30.00,Monday
8,220539366.53835464
2,2, 1, 2, 0,11,30.00,40.00,Monday
8,218954346.13315853
2,2, 1, 2, 0,11,40.00,50.00,Monday
8,217438592.95371765
2,2, 1, 2, 0,11,50.00,60.00,Monday
8,216063206.83599815
2,2, 1, 2, 0,12, 0.00,10.00,Monday
8,210964262.12568215
2,2, 1, 2, 0,12,10.00,20.00,Monday
8,208173683.2155638
2,2, 1, 2, 0,12,20.00,30.00,Monday
8,205643162.4197645
2,2, 1, 2, 0,12,30.00,40.00,Monday
8,203267789.57225904
2,2, 1, 2, 0,12,40.00,50.00,Monday
8,200989284.80825207
2,2, 1, 2, 0,12,50.00,60.00,Monday
8,198801830.64974353
2,2, 1, 2, 0,13, 0.00,10.00,Monday
8,195178428.81416205
2,2, 1, 2, 0,13,10.00,20.00,Monday
8,192201273.51720592
2,2, 1, 2, 0,13,20.00,30.00,Monday
8,189506598.93162042
2,2, 1, 2, 0,13,30.00,40.00,Monday
8,186836960.71033537
2,2, 1, 2, 0,13,40.00,50.00,Monday
8,184210440.87150514
2,2, 1, 2, 0,13,50.00,60.00,Monday
8,181621937.5479057
2,2, 1, 2, 0,14, 0.00,10.00,Monday
8,183189967.75926965
2,2, 1, 2, 0,14,10.00,20.00,Monday
8,185048635.32562047
2,2, 1, 2, 0,14,20.00,30.00,Monday
8,186982083.21213043
2,2, 1, 2, 0,14,30.00,40.00,Monday
8,188981246.809964
2,2, 1, 2, 0,14,40.00,50.00,Monday
8,191008999.09262207
2,2, 1, 2, 0,14,50.00,60.00,Monday
8,193051911.36819655
2,2, 1, 2, 0,15, 0.00,10.00,Monday
8,191678382.27632248
2,2, 1, 2, 0,15,10.00,20.00,Monday
8,189804862.08083153
2,2, 1, 2, 0,15,20.00,30.00,Monday
8,187917207.9275076
2,2, 1, 2, 0,15,30.00,40.00,Monday
8,186071223.0301167
2,2, 1, 2, 0,15,40.00,50.00,Monday
8,184267907.724726
2,2, 1, 2, 0,15,50.00,60.00,Monday
8,182487679.21733654
2,2, 1, 2, 0,16, 0.00,10.00,Monday
8,183862880.06291625
2,2, 1, 2, 0,16,10.00,20.00,Monday
8,184415962.1017672
2,2, 1, 2, 0,16,20.00,30.00,Monday
8,184815904.41288495
2,2, 1, 2, 0,16,30.00,40.00,Monday
8,185367902.5888536
2,2, 1, 2, 0,16,40.00,50.00,Monday
8,186030506.66959617
2,2, 1, 2, 0,16,50.00,60.00,Monday
8,186733978.214581
2,2, 1, 2, 0,17, 0.00,10.00,Monday
8,182979881.22202846
2,2, 1, 2, 0,17,10.00,20.00,Monday
8,178547519.43130022
2,2, 1, 2, 0,17,20.00,30.00,Monday
8,173482436.60309523
2,2, 1, 2, 0,17,30.00,40.00,Monday
8,168233337.9059589
2,2, 1, 2, 0,17,40.00,50.00,Monday
8,162848803.77933
2,2, 1, 2, 0,17,50.00,60.00,Monday
8,156785896.85755843
2,2, 1, 2, 0,18, 0.00,10.00,Monday
8,156202025.60908687
2,2, 1, 2, 0,18,10.00,20.00,Monday
8,154797370.41638955
2,2, 1, 2, 0,18,20.00,30.00,Monday
8,153097365.33765176
2,2, 1, 2, 0,18,30.00,40.00,Monday
8,151335280.89679214
2,2, 1, 2, 0,18,40.00,50.00,Monday
8,149536991.93186176
2,2, 1, 2, 0,18,50.00,60.00,Monday
8,147715749.92674497
2,2, 1, 2, 0,19, 0.00,10.00,Monday
8,148161237.2242446
2,2, 1, 2, 0,19,10.00,20.00,Monday
8,148254053.33398744
2,2, 1, 2, 0,19,20.00,30.00,Monday
8,147831233.04567644
2,2, 1, 2, 0,19,30.00,40.00,Monday
8,148037792.64921895
2,2, 1, 2, 0,19,40.00,50.00,Monday
8,148161733.72687012
2,2, 1, 2, 0,19,50.00,60.00,Monday
8,148062147.94192955
2,2, 1, 2, 0,20, 0.00,10.00,Monday
8,124484050.81270681
2,2, 1, 2, 0,20,10.00,20.00,Monday
8,124966051.54539253
2,2, 1, 2, 0,20,20.00,30.00,Monday
8,128142134.99057178
2,2, 1, 2, 0,20,30.00,40.00,Monday
8,129548725.7632611
2,2, 1, 2, 0,20,40.00,50.00,Monday
8,131781569.53909451
2,2, 1, 2, 0,20,50.00,60.00,Monday
8,131218020.29990801
2,2, 1, 2, 0,21, 0.00,10.00,Monday
8,128981694.65108876
2,2, 1, 2, 0,21,10.00,20.00,Monday
8,127603300.40269737
2,2, 1, 2, 0,21,20.00,30.00,Monday
8,124969135.71370736
2,2, 1, 2, 0,21,30.00,40.00,Monday
8,122418710.20424514
2,2, 1, 2, 0,21,40.00,50.00,Monday
8,120309134.4767731
2,2, 1, 2, 0,21,50.00,60.00,Monday
8,117195135.87657821
2,2, 1, 2, 0,22, 0.00,10.00,Monday
8,8465506.324292747
2,2, 1, 2, 0,22,10.00,20.00,Monday
8,11252798.97276599
2,2, 1, 2, 0,22,20.00,30.00,Monday
8,14978754.79412243
2,2, 1, 2, 0,22,30.00,40.00,Monday
8,18334546.45296089
2,2, 1, 2, 0,22,40.00,50.00,Monday
8,34300495.34762385
2,2, 1, 2, 0,22,50.00,60.00,Monday
8,51107039.08390936
2,2, 1, 2, 0,23, 0.00,10.00,Monday
8,45542955.13904156
2,2, 1, 2, 0,23,10.00,20.00,Monday
8,52092555.48534773
2,2, 1, 2, 0,23,20.00,30.00,Monday
8,54652896.58932751
2,2, 1, 2, 0,23,30.00,40.00,Monday
8,55958099.35548929
2,2, 1, 2, 0,23,40.00,50.00,Monday
8,57646727.845213614
2,2, 1, 2, 0,23,50.00,60.00,Monday
8,59211960.561492965
2,2, 1, 2, 0,24, 0.00,10.00,Monday
8,62636209.74325485
2,2, 1, 2, 0,24,10.00,20.00,Monday
8,62869179.54871148
2,2, 1, 2, 0,24,20.00,30.00,Monday
8,63291584.47077763
2,2, 1, 2, 0,24,30.00,40.00,Monday
8,63666057.34821392
2,2, 1, 2, 0,24,40.00,50.00,Monday
8,64536867.55017248
2,2, 1, 2, 0,24,50.00,60.00,Monday
8,64252188.07587984
2,3, 1, 3, 0, 1, 0.00,10.00,Tuesday
8,64888290.261007324
2,3, 1, 3, 0, 1,10.00,20.00,Tuesday
8,64501257.65711414
2,3, 1, 3, 0, 1,20.00,30.00,Tuesday
8,64491228.57186371
2,3, 1, 3, 0, 1,30.00,40.00,Tuesday
8,63334911.293192096
2,3, 1, 3, 0, 1,40.00,50.00,Tuesday
8,62702900.64473017
2,3, 1, 3, 0, 1,50.00,60.00,Tuesday
8,62050216.322663546
2,3, 1, 3, 0, 2, 0.00,10.00,Tuesday
8,64662884.51668964
2,3, 1, 3, 0, 2,10.00,20.00,Tuesday
8,65849789.39330264
2,3, 1, 3, 0, 2,20.00,30.00,Tuesday
8,67540377.96936946
2,3, 1, 3, 0, 2,30.00,40.00,Tuesday
8,69220079.94032896
2,3, 1, 3, 0, 2,40.00,50.00,Tuesday
8,71445220.00296299
2,3, 1, 3, 0, 2,50.00,60.00,Tuesday
8,72548349.4717108
2,3, 1, 3, 0, 3, 0.00,10.00,Tuesday
8,73198995.77912353
2,3, 1, 3, 0, 3,10.00,20.00,Tuesday
8,73809446.37146354
2,3, 1, 3, 0, 3,20.00,30.00,Tuesday
8,74971877.69925587
2,3, 1, 3, 0, 3,30.00,40.00,Tuesday
8,75019280.49158633
2,3, 1, 3, 0, 3,40.00,50.00,Tuesday
8,75622736.58888064
2,3, 1, 3, 0, 3,50.00,60.00,Tuesday
8,76225528.45717908
2,3, 1, 3, 0, 4, 0.00,10.00,Tuesday
8,76659598.8071589
2,3, 1, 3, 0, 4,10.00,20.00,Tuesday
8,75966078.65482521
2,3, 1, 3, 0, 4,20.00,30.00,Tuesday
8,75830548.5580013
2,3, 1, 3, 0, 4,30.00,40.00,Tuesday
8,75696856.18868788
2,3, 1, 3, 0, 4,40.00,50.00,Tuesday
8,76121215.99635844
2,3, 1, 3, 0, 4,50.00,60.00,Tuesday
8,75430384.04178467
2,3, 1, 3, 0, 5, 0.00,10.00,Tuesday
8,77558618.4709856
2,3, 1, 3, 0, 5,10.00,20.00,Tuesday
8,79614302.84762372
2,3, 1, 3, 0, 5,20.00,30.00,Tuesday
8,82213882.05370326
2,3, 1, 3, 0, 5,30.00,40.00,Tuesday
8,83695603.0152355
2,3, 1, 3, 0, 5,40.00,50.00,Tuesday
8,85735410.04986753
2,3, 1, 3, 0, 5,50.00,60.00,Tuesday
8,87777223.74348442
2,3, 1, 3, 0, 6, 0.00,10.00,Tuesday
8,89888122.78136756
2,3, 1, 3, 0, 6,10.00,20.00,Tuesday
8,90918640.23204191
2,3, 1, 3, 0, 6,20.00,30.00,Tuesday
8,92512063.48431201
2,3, 1, 3, 0, 6,30.00,40.00,Tuesday
8,94104592.80526213
2,3, 1, 3, 0, 6,40.00,50.00,Tuesday
8,96253574.22096123
2,3, 1, 3, 0, 6,50.00,60.00,Tuesday
8,97282691.98978095
2,3, 1, 3, 0, 7, 0.00,10.00,Tuesday
8,95803925.71558137
2,3, 1, 3, 0, 7,10.00,20.00,Tuesday
8,94360503.72135971
2,3, 1, 3, 0, 7,20.00,30.00,Tuesday
8,93489835.78287818
2,3, 1, 3, 0, 7,30.00,40.00,Tuesday
8,91512281.18537891
2,3, 1, 3, 0, 7,40.00,50.00,Tuesday
8,90105193.45969579
2,3, 1, 3, 0, 7,50.00,60.00,Tuesday
8,88710286.21712278
2,3, 1, 3, 0, 8, 0.00,10.00,Tuesday
8,144728223.5983748
2,3, 1, 3, 0, 8,10.00,20.00,Tuesday
8,109839395.10412104
2,3, 1, 3, 0, 8,20.00,30.00,Tuesday
8,106680037.17211364
2,3, 1, 3, 0, 8,30.00,40.00,Tuesday
8,99339139.1515082
2,3, 1, 3, 0, 8,40.00,50.00,Tuesday
8,94134305.64297138
2,3, 1, 3, 0, 8,50.00,60.00,Tuesday
8,89443605.61087431
2,3, 1, 3, 0, 9, 0.00,10.00,Tuesday
8,132471928.8358573
2,3, 1, 3, 0, 9,10.00,20.00,Tuesday
8,126312756.94197845
2,3, 1, 3, 0, 9,20.00,30.00,Tuesday
8,103297122.19790338
2,3, 1, 3, 0, 9,30.00,40.00,Tuesday
8,105161016.9600213
2,3, 1, 3, 0, 9,40.00,50.00,Tuesday
8,103566222.96050389
2,3, 1, 3, 0, 9,50.00,60.00,Tuesday
8,102022255.10502458
2,3, 1, 3, 0,10, 0.00,10.00,Tuesday
8,165375492.5329885
2,3, 1, 3, 0,10,10.00,20.00,Tuesday
8,158506638.55491892
2,3, 1, 3, 0,10,20.00,30.00,Tuesday
8,153000239.09162152
2,3, 1, 3, 0,10,30.00,40.00,Tuesday
8,147895896.36613643
2,3, 1, 3, 0,10,40.00,50.00,Tuesday
8,142949283.17233053
2,3, 1, 3, 0,10,50.00,60.00,Tuesday
8,138249154.32373038
2,3, 1, 3, 0,11, 0.00,10.00,Tuesday
8,136716289.78534293
2,3, 1, 3, 0,11,10.00,20.00,Tuesday
8,138858853.06528205
2,3, 1, 3, 0,11,20.00,30.00,Tuesday
8,141569501.36793602
2,3, 1, 3, 0,11,30.00,40.00,Tuesday
8,144343440.06389663
2,3, 1, 3, 0,11,40.00,50.00,Tuesday
8,147355090.34246472
2,3, 1, 3, 0,11,50.00,60.00,Tuesday
8,150496213.94544017
2,3, 1, 3, 0,12, 0.00,10.00,Tuesday
8,148684907.66510493
2,3, 1, 3, 0,12,10.00,20.00,Tuesday
8,147994951.55711618
2,3, 1, 3, 0,12,20.00,30.00,Tuesday
8,147498325.12639073
2,3, 1, 3, 0,12,30.00,40.00,Tuesday
8,147109340.98643437
2,3, 1, 3, 0,12,40.00,50.00,Tuesday
8,146787036.07920495
2,3, 1, 3, 0,12,50.00,60.00,Tuesday
8,146651699.99449265
2,3, 1, 3, 0,13, 0.00,10.00,Tuesday
8,144457340.7145658
2,3, 1, 3, 0,13,10.00,20.00,Tuesday
8,142820008.62759516
2,3, 1, 3, 0,13,20.00,30.00,Tuesday
8,141318555.3007196
2,3, 1, 3, 0,13,30.00,40.00,Tuesday
8,139843088.63509294
2,3, 1, 3, 0,13,40.00,50.00,Tuesday
8,138395994.93758124
2,3, 1, 3, 0,13,50.00,60.00,Tuesday
8,136970806.34896326
2,3, 1, 3, 0,14, 0.00,10.00,Tuesday
8,136305903.63993442
2,3, 1, 3, 0,14,10.00,20.00,Tuesday
8,135999046.57939383
2,3, 1, 3, 0,14,20.00,30.00,Tuesday
8,135675777.27751023
2,3, 1, 3, 0,14,30.00,40.00,Tuesday
8,135229530.8312768
2,3, 1, 3, 0,14,40.00,50.00,Tuesday
8,134651043.5873287
2,3, 1, 3, 0,14,50.00,60.00,Tuesday
8,134132962.70077604
2,3, 1, 3, 0,15, 0.00,10.00,Tuesday
8,131198032.06893012
2,3, 1, 3, 0,15,10.00,20.00,Tuesday
8,129094561.43335082
2,3, 1, 3, 0,15,20.00,30.00,Tuesday
8,127130196.7669147
2,3, 1, 3, 0,15,30.00,40.00,Tuesday
8,125373164.87627229
2,3, 1, 3, 0,15,40.00,50.00,Tuesday
8,123741783.5647669
2,3, 1, 3, 0,15,50.00,60.00,Tuesday
8,122169020.04581352
2,3, 1, 3, 0,16, 0.00,10.00,Tuesday
8,120000464.04010291
2,3, 1, 3, 0,16,10.00,20.00,Tuesday
8,118267764.15189843
2,3, 1, 3, 0,16,20.00,30.00,Tuesday
8,116599082.00744887
2,3, 1, 3, 0,16,30.00,40.00,Tuesday
8,115151954.20783578
2,3, 1, 3, 0,16,40.00,50.00,Tuesday
8,113883475.6678465
2,3, 1, 3, 0,16,50.00,60.00,Tuesday
8,112705689.04037693
2,3, 1, 3, 0,17, 0.00,10.00,Tuesday
8,111238703.09201497
2,3, 1, 3, 0,17,10.00,20.00,Tuesday
8,109963203.19460346
2,3, 1, 3, 0,17,20.00,30.00,Tuesday
8,108215905.06182636
2,3, 1, 3, 0,17,30.00,40.00,Tuesday
8,106360596.56906839
2,3, 1, 3, 0,17,40.00,50.00,Tuesday
8,104469075.83345161
2,3, 1, 3, 0,17,50.00,60.00,Tuesday
8,101978396.09362264
2,3, 1, 3, 0,18, 0.00,10.00,Tuesday
8,102454689.40535071
2,3, 1, 3, 0,18,10.00,20.00,Tuesday
8,102549232.15635261
2,3, 1, 3, 0,18,20.00,30.00,Tuesday
8,102396392.08932553
2,3, 1, 3, 0,18,30.00,40.00,Tuesday
8,102207696.231305
2,3, 1, 3, 0,18,40.00,50.00,Tuesday
8,101987909.4013698
2,3, 1, 3, 0,18,50.00,60.00,Tuesday
8,101744264.77297145
2,3, 1, 3, 0,19, 0.00,10.00,Tuesday
8,100687436.5483232
2,3, 1, 3, 0,19,10.00,20.00,Tuesday
8,99494391.2829024
2,3, 1, 3, 0,19,20.00,30.00,Tuesday
8,97986322.28503452
2,3, 1, 3, 0,19,30.00,40.00,Tuesday
8,97129309.18583937
2,3, 1, 3, 0,19,40.00,50.00,Tuesday
8,96050075.19482934
2,3, 1, 3, 0,19,50.00,60.00,Tuesday
8,94833958.8433242
2,3, 1, 3, 0,20, 0.00,10.00,Tuesday
8,79654766.75204118
2,3, 1, 3, 0,20,10.00,20.00,Tuesday
8,82184811.54519546
2,3, 1, 3, 0,20,20.00,30.00,Tuesday
8,84207002.00898804
2,3, 1, 3, 0,20,30.00,40.00,Tuesday
8,87375382.83307457
2,3, 1, 3, 0,20,40.00,50.00,Tuesday
8,92437345.10065746
2,3, 1, 3, 0,20,50.00,60.00,Tuesday
8,95393809.3747035
2,3, 1, 3, 0,21, 0.00,10.00,Tuesday
8,97268322.59022088
2,3, 1, 3, 0,21,10.00,20.00,Tuesday
8,101253864.82811598
2,3, 1, 3, 0,21,20.00,30.00,Tuesday
8,103670429.53956515
2,3, 1, 3, 0,21,30.00,40.00,Tuesday
8,106484115.7447383
2,3, 1, 3, 0,21,40.00,50.00,Tuesday
8,109485219.25191236
2,3, 1, 3, 0,21,50.00,60.00,Tuesday
8,111541907.0036447
2,3, 1, 3, 0,22, 0.00,10.00,Tuesday
8,11947358.381742643
2,3, 1, 3, 0,22,10.00,20.00,Tuesday
8,14350929.594469352
2,3, 1, 3, 0,22,20.00,30.00,Tuesday
8,17860290.058365494
2,3, 1, 3, 0,22,30.00,40.00,Tuesday
8,21910761.278448477
2,3, 1, 3, 0,22,40.00,50.00,Tuesday
8,30157565.29906571
2,3, 1, 3, 0,22,50.00,60.00,Tuesday
8,38395161.4420182
2,3, 1, 3, 0,23, 0.00,10.00,Tuesday
8,44462722.504579455
2,3, 1, 3, 0,23,10.00,20.00,Tuesday
8,45300224.54378521
2,3, 1, 3, 0,23,20.00,30.00,Tuesday
8,47060119.728044204
2,3, 1, 3, 0,23,30.00,40.00,Tuesday
8,47100651.386386104
2,3, 1, 3, 0,23,40.00,50.00,Tuesday
8,47561489.19730174
2,3, 1, 3, 0,23,50.00,60.00,Tuesday
8,47923017.650351636
2,3, 1, 3, 0,24, 0.00,10.00,Tuesday
8,52265175.77463433
2,3, 1, 3, 0,24,10.00,20.00,Tuesday
8,53430518.966223545
2,3, 1, 3, 0,24,20.00,30.00,Tuesday
8,54737847.913101934
2,3, 1, 3, 0,24,30.00,40.00,Tuesday
8,55987295.29852568
2,3, 1, 3, 0,24,40.00,50.00,Tuesday
8,57728166.48426708
2,3, 1, 3, 0,24,50.00,60.00,Tuesday
8,58308503.42706718
2,4, 1, 4, 0, 1, 0.00,10.00,Wednesday
8,58288887.88575884
2,4, 1, 4, 0, 1,10.00,20.00,Wednesday
8,57339486.40191892
2,4, 1, 4, 0, 1,20.00,30.00,Wednesday
8,56776792.92666751
2,4, 1, 4, 0, 1,30.00,40.00,Wednesday
8,55064095.843402155
2,4, 1, 4, 0, 1,40.00,50.00,Wednesday
8,53871281.608434714
2,4, 1, 4, 0, 1,50.00,60.00,Wednesday
8,52649422.91299924
2,4, 1, 4, 0, 2, 0.00,10.00,Wednesday
8,54578183.62012531
2,4, 1, 4, 0, 2,10.00,20.00,Wednesday
8,55007628.900975816
2,4, 1, 4, 0, 2,20.00,30.00,Wednesday
8,55932708.92482153
2,4, 1, 4, 0, 2,30.00,40.00,Wednesday
8,56851829.57758977
2,4, 1, 4, 0, 2,40.00,50.00,Wednesday
8,58321514.94697367
2,4, 1, 4, 0, 2,50.00,60.00,Wednesday
8,58672207.422781266
2,4, 1, 4, 0, 3, 0.00,10.00,Wednesday
8,60580419.37511979
2,4, 1, 4, 0, 3,10.00,20.00,Wednesday
8,62351043.67635124
2,4, 1, 4, 0, 3,20.00,30.00,Wednesday
8,64674350.42547581
2,4, 1, 4, 0, 3,30.00,40.00,Wednesday
8,65898611.025783435
2,4, 1, 4, 0, 3,40.00,50.00,Wednesday
8,67696870.64694835
2,4, 1, 4, 0, 3,50.00,60.00,Wednesday
8,69512983.88833636
2,4, 1, 4, 0, 4, 0.00,10.00,Wednesday
8,66891266.91523017
2,4, 1, 4, 0, 4,10.00,20.00,Wednesday
8,63052399.38459839
2,4, 1, 4, 0, 4,20.00,30.00,Wednesday
8,59741312.48525181
2,4, 1, 4, 0, 4,30.00,40.00,Wednesday
8,56410360.86116051
2,4, 1, 4, 0, 4,40.00,50.00,Wednesday
8,53615840.10952932
2,4, 1, 4, 0, 4,50.00,60.00,Wednesday
8,49683297.419184424
2,4, 1, 4, 0, 5, 0.00,10.00,Wednesday
8,53356086.39896551
2,4, 1, 4, 0, 5,10.00,20.00,Wednesday
8,56938604.32596783
2,4, 1, 4, 0, 5,20.00,30.00,Wednesday
8,61118240.20286375
2,4, 1, 4, 0, 5,30.00,40.00,Wednesday
8,64240528.12139019
2,4, 1, 4, 0, 5,40.00,50.00,Wednesday
8,67980506.78074469
2,4, 1, 4, 0, 5,50.00,60.00,Wednesday
8,71781301.88897671
2,4, 1, 4, 0, 6, 0.00,10.00,Wednesday
8,73599601.71929567
2,4, 1, 4, 0, 6,10.00,20.00,Wednesday
8,74090764.27684642
2,4, 1, 4, 0, 6,20.00,30.00,Wednesday
8,75105371.45975624
2,4, 1, 4, 0, 6,30.00,40.00,Wednesday
8,76115789.32252012
2,4, 1, 4, 0, 6,40.00,50.00,Wednesday
8,77682466.38078153
2,4, 1, 4, 0, 6,50.00,60.00,Wednesday
8,78131149.97411871
2,4, 1, 4, 0, 7, 0.00,10.00,Wednesday
8,74375220.35548714
2,4, 1, 4, 0, 7,10.00,20.00,Wednesday
8,70554435.20222603
2,4, 1, 4, 0, 7,20.00,30.00,Wednesday
8,67267419.4887384
2,4, 1, 4, 0, 7,30.00,40.00,Wednesday
8,62843650.43690085
2,4, 1, 4, 0, 7,40.00,50.00,Wednesday
8,58961861.55555962
2,4, 1, 4, 0, 7,50.00,60.00,Wednesday
8,55064114.08909255
2,4, 1, 4, 0, 8, 0.00,10.00,Wednesday
8,113145290.53148983
2,4, 1, 4, 0, 8,10.00,20.00,Wednesday
8,53095572.58975659
2,4, 1, 4, 0, 8,20.00,30.00,Wednesday
8,85885117.4720715
2,4, 1, 4, 0, 8,30.00,40.00,Wednesday
8,81667860.4442036
2,4, 1, 4, 0, 8,40.00,50.00,Wednesday
8,81209832.77542163
2,4, 1, 4, 0, 8,50.00,60.00,Wednesday
8,80972566.8650269
2,4, 1, 4, 0, 9, 0.00,10.00,Wednesday
8,127296907.96192382
2,4, 1, 4, 0, 9,10.00,20.00,Wednesday
8,117692717.6011947
2,4, 1, 4, 0, 9,20.00,30.00,Wednesday
8,97466047.93685651
2,4, 1, 4, 0, 9,30.00,40.00,Wednesday
8,99592775.1041785
2,4, 1, 4, 0, 9,40.00,50.00,Wednesday
8,98380925.08665293
2,4, 1, 4, 0, 9,50.00,60.00,Wednesday
8,97871753.75079644
2,4, 1, 4, 0,10, 0.00,10.00,Wednesday
8,158262143.64754725
2,4, 1, 4, 0,10,10.00,20.00,Wednesday
8,157967624.08668008
2,4, 1, 4, 0,10,20.00,30.00,Wednesday
8,158965760.62755495
2,4, 1, 4, 0,10,30.00,40.00,Wednesday
8,160349598.02050802
2,4, 1, 4, 0,10,40.00,50.00,Wednesday
8,161841352.19293025
2,4, 1, 4, 0,10,50.00,60.00,Wednesday
8,163503244.43789306
2,4, 1, 4, 0,11, 0.00,10.00,Wednesday
8,158286460.82338125
2,4, 1, 4, 0,11,10.00,20.00,Wednesday
8,157290002.4689934
2,4, 1, 4, 0,11,20.00,30.00,Wednesday
8,156695023.36480772
2,4, 1, 4, 0,11,30.00,40.00,Wednesday
8,156146361.34328097
2,4, 1, 4, 0,11,40.00,50.00,Wednesday
8,155812312.01214993
2,4, 1, 4, 0,11,50.00,60.00,Wednesday
8,155573319.25143242
2,4, 1, 4, 0,12, 0.00,10.00,Wednesday
8,151939773.56356305
2,4, 1, 4, 0,12,10.00,20.00,Wednesday
8,150407729.11975953
2,4, 1, 4, 0,12,20.00,30.00,Wednesday
8,149092411.40595353
2,4, 1, 4, 0,12,30.00,40.00,Wednesday
8,147852422.65314877
2,4, 1, 4, 0,12,40.00,50.00,Wednesday
8,146608494.5709472
2,4, 1, 4, 0,12,50.00,60.00,Wednesday
8,145611388.24928254
2,4, 1, 4, 0,13, 0.00,10.00,Wednesday
8,145393078.6600392
2,4, 1, 4, 0,13,10.00,20.00,Wednesday
8,146232162.17671135
2,4, 1, 4, 0,13,20.00,30.00,Wednesday
8,147193885.84973392
2,4, 1, 4, 0,13,30.00,40.00,Wednesday
8,148140446.8447224
2,4, 1, 4, 0,13,40.00,50.00,Wednesday
8,149101476.8976952
2,4, 1, 4, 0,13,50.00,60.00,Wednesday
8,150068276.3770002
2,4, 1, 4, 0,14, 0.00,10.00,Wednesday
8,146781270.18488127
2,4, 1, 4, 0,14,10.00,20.00,Wednesday
8,144434266.94469783
2,4, 1, 4, 0,14,20.00,30.00,Wednesday
8,142122680.14834848
2,4, 1, 4, 0,14,30.00,40.00,Wednesday
8,139985538.21647078
2,4, 1, 4, 0,14,40.00,50.00,Wednesday
8,137920808.02100682
2,4, 1, 4, 0,14,50.00,60.00,Wednesday
8,135896160.7668093
2,4, 1, 4, 0,15, 0.00,10.00,Wednesday
8,138356539.28179875
2,4, 1, 4, 0,15,10.00,20.00,Wednesday
8,140295522.74735442
2,4, 1, 4, 0,15,20.00,30.00,Wednesday
8,142267780.67081645
2,4, 1, 4, 0,15,30.00,40.00,Wednesday
8,144304396.04495484
2,4, 1, 4, 0,15,40.00,50.00,Wednesday
8,146382460.26275176