Program Version,EnergyPlus, Version 23.2.0-7636e6b3e9, YMD=2025.01.19 15:46
1,5,Environment Title[],Latitude[deg],Longitude[deg],Time Zone[],Elevation[m]
2,8,Day of Simulation[],Month[],Day of Month[],DST Indicator[1=yes 0=no],Hour[],StartMinute[],EndMinute[],DayType
3,5,Cumulative Day of Simulation[],Month[],Day of Month[],DST Indicator[1=yes 0=no],DayType  ! When Daily Report Variables Requested
4,2,Cumulative Days of Simulation[],Month[]  ! When Monthly Report Variables Requested
5,1,Cumulative Days of Simulation[] ! When Run Period Report Variables Requested
6,1,Calendar Year of Simulation[] ! When Annual Report Variables Requested
8,1,Electricity:Facility [J] !TimeStep
End of Data Dictionary
1,RUN PERIOD 1,  45.47, -73.74,  -5.00,  36.00
2,1, 1, 1, 0, 1, 0.00,10.00,Sunday
8,68451248.90066914
2,1, 1, 1, 0, 1,10.00,20.00,Sunday
8,66639043.2254054
2,1, 1, 1, 0, 1,20.00,30.00,Sunday
8,64076768.205204815
2,1, 1, 1, 0, 1,30.00,40.00,Sunday
8,61886665.3158253
2,1, 1, 1, 0, 1,40.00,50.00,Sunday
8,58974110.95515051
2,1, 1, 1, 0, 1,50.00,60.00,Sunday
8,56140763.79165624
2,1, 1, 1, 0, 2, 0.00,10.00,Sunday
8,56716582.70330458
2,1, 1, 1, 0, 2,10.00,20.00,Sunday
8,56914706.74270033
2,1, 1, 1, 0, 2,20.00,30.00,Sunday
8,56582493.29037975
2,1, 1, 1, 0, 2,30.00,40.00,Sunday
8,56040226.90487066
2,1, 1, 1, 0, 2,40.00,50.00,Sunday
8,55674343.70556905
2,1, 1, 1, 0, 2,50.00,60.00,Sunday
8,55497838.296331234
2,1, 1, 1, 0, 3, 0.00,10.00,Sunday
8,56715809.701457545
2,1, 1, 1, 0, 3,10.00,20.00,Sunday
8,57137701.518960804
2,1, 1, 1, 0, 3,20.00,30.00,Sunday
8,57792951.79307965
2,1, 1, 1, 0, 3,30.00,40.00,Sunday
8,58643711.94023171
2,1, 1, 1, 0, 3,40.00,50.00,Sunday
8,59423642.30293949
2,1, 1, 1, 0, 3,50.00,60.00,Sunday
8,59699409.11154194
2,1, 1, 1, 0, 4, 0.00,10.00,Sunday
8,58088136.57989112
2,1, 1, 1, 0, 4,10.00,20.00,Sunday
8,56284103.91256108
2,1, 1, 1, 0, 4,20.00,30.00,Sunday
8,54432170.86869199
2,1, 1, 1, 0, 4,30.00,40.00,Sunday
8,51942556.669299126
2,1, 1, 1, 0, 4,40.00,50.00,Sunday
8,49796719.73834359
2,1, 1, 1, 0, 4,50.00,60.00,Sunday
8,47760851.54041466
2,1, 1, 1, 0, 5, 0.00,10.00,Sunday
8,47513875.135077685
2,1, 1, 1, 0, 5,10.00,20.00,Sunday
8,46379389.34948362
2,1, 1, 1, 0, 5,20.00,30.00,Sunday
8,45612465.68066341
2,1, 1, 1, 0, 5,30.00,40.00,Sunday
8,44965790.53065681
2,1, 1, 1, 0, 5,40.00,50.00,Sunday
8,44470496.55820969
2,1, 1, 1, 0, 5,50.00,60.00,Sunday
8,43248919.968831666
2,1, 1, 1, 0, 6, 0.00,10.00,Sunday
8,43439709.90389676
2,1, 1, 1, 0, 6,10.00,20.00,Sunday
8,43637420.96278516
2,1, 1, 1, 0, 6,20.00,30.00,Sunday
8,44015039.945380785
2,1, 1, 1, 0, 6,30.00,40.00,Sunday
8,43636873.123055436
2,1, 1, 1, 0, 6,40.00,50.00,Sunday
8,43691985.295612834
2,1, 1, 1, 0, 6,50.00,60.00,Sunday
8,43855564.5077533
2,1, 1, 1, 0, 7, 0.00,10.00,Sunday
8,42995357.76193089
2,1, 1, 1, 0, 7,10.00,20.00,Sunday
8,41291107.35039414
2,1, 1, 1, 0, 7,20.00,30.00,Sunday
8,40029032.847893864
2,1, 1, 1, 0, 7,30.00,40.00,Sunday
8,38880619.08676013
2,1, 1, 1, 0, 7,40.00,50.00,Sunday
8,37984128.39728222
2,1, 1, 1, 0, 7,50.00,60.00,Sunday
8,36302873.864190914
2,1, 1, 1, 0, 8, 0.00,10.00,Sunday
8,37057040.24565712
2,1, 1, 1, 0, 8,10.00,20.00,Sunday
8,37923848.497924566
2,1, 1, 1, 0, 8,20.00,30.00,Sunday
8,39042678.91989803
2,1, 1, 1, 0, 8,30.00,40.00,Sunday
8,39346838.571109585
2,1, 1, 1, 0, 8,40.00,50.00,Sunday
8,39707859.88478609
2,1, 1, 1, 0, 8,50.00,60.00,Sunday
8,40159554.584883
2,1, 1, 1, 0, 9, 0.00,10.00,Sunday
8,42977910.60318528
2,1, 1, 1, 0, 9,10.00,20.00,Sunday
8,45208575.92274907
2,1, 1, 1, 0, 9,20.00,30.00,Sunday
8,47899927.04489766
2,1, 1, 1, 0, 9,30.00,40.00,Sunday
8,50603984.634741105
2,1, 1, 1, 0, 9,40.00,50.00,Sunday
8,53534165.48562099
2,1, 1, 1, 0, 9,50.00,60.00,Sunday
8,55595378.131455354
2,1, 1, 1, 0,10, 0.00,10.00,Sunday
8,102907370.77639309
2,1, 1, 1, 0,10,10.00,20.00,Sunday
8,55328551.69341479
2,1, 1, 1, 0,10,20.00,30.00,Sunday
8,89863962.42555976
2,1, 1, 1, 0,10,30.00,40.00,Sunday
8,90968561.20233096
2,1, 1, 1, 0,10,40.00,50.00,Sunday
8,95919362.60081038
2,1, 1, 1, 0,10,50.00,60.00,Sunday
8,102121406.70140253
2,1, 1, 1, 0,11, 0.00,10.00,Sunday
8,112340104.45416997
2,1, 1, 1, 0,11,10.00,20.00,Sunday
8,134199703.43581115
2,1, 1, 1, 0,11,20.00,30.00,Sunday
8,113095218.78109299
2,1, 1, 1, 0,11,30.00,40.00,Sunday
8,109893906.01487075
2,1, 1, 1, 0,11,40.00,50.00,Sunday
8,106548112.66461143
2,1, 1, 1, 0,11,50.00,60.00,Sunday
8,104430460.15153135
2,1, 1, 1, 0,12, 0.00,10.00,Sunday
8,191580674.6482266
2,1, 1, 1, 0,12,10.00,20.00,Sunday
8,191944101.15498734
2,1, 1, 1, 0,12,20.00,30.00,Sunday
8,192990526.2815306
2,1, 1, 1, 0,12,30.00,40.00,Sunday
8,193484453.0705188
2,1, 1, 1, 0,12,40.00,50.00,Sunday
8,195516048.5559104
2,1, 1, 1, 0,12,50.00,60.00,Sunday
8,197015451.64280587
2,1, 1, 1, 0,13, 0.00,10.00,Sunday
8,189685589.7376132
2,1, 1, 1, 0,13,10.00,20.00,Sunday
8,186009987.18915626
2,1, 1, 1, 0,13,20.00,30.00,Sunday
8,182734446.98624521
2,1, 1, 1, 0,13,30.00,40.00,Sunday
8,179565726.79192135
2,1, 1, 1, 0,13,40.00,50.00,Sunday
8,176669585.44744384
2,1, 1, 1, 0,13,50.00,60.00,Sunday
8,173658765.75473693
2,1, 1, 1, 0,14, 0.00,10.00,Sunday
8,176385996.6498286
2,1, 1, 1, 0,14,10.00,20.00,Sunday
8,178921914.93111157
2,1, 1, 1, 0,14,20.00,30.00,Sunday
8,182188017.16764903
2,1, 1, 1, 0,14,30.00,40.00,Sunday
8,186208652.81579077
2,1, 1, 1, 0,14,40.00,50.00,Sunday
8,188962465.37535506
2,1, 1, 1, 0,14,50.00,60.00,Sunday
8,192460898.25922817
2,1, 1, 1, 0,15, 0.00,10.00,Sunday
8,193048545.5629976
2,1, 1, 1, 0,15,10.00,20.00,Sunday
8,191674522.8585379
2,1, 1, 1, 0,15,20.00,30.00,Sunday
8,191011689.1258853
2,1, 1, 1, 0,15,30.00,40.00,Sunday
8,190842639.1773821
2,1, 1, 1, 0,15,40.00,50.00,Sunday
8,189615079.598453
2,1, 1, 1, 0,15,50.00,60.00,Sunday
8,189115178.5226144
2,1, 1, 1, 0,16, 0.00,10.00,Sunday
8,189493464.11442435
2,1, 1, 1, 0,16,10.00,20.00,Sunday
8,188430778.56291178
2,1, 1, 1, 0,16,20.00,30.00,Sunday
8,187262375.25212646
2,1, 1, 1, 0,16,30.00,40.00,Sunday
8,186227119.0148654
2,1, 1, 1, 0,16,40.00,50.00,Sunday
8,185182148.79972604
2,1, 1, 1, 0,16,50.00,60.00,Sunday
8,184322682.18397343
2,1, 1, 1, 0,17, 0.00,10.00,Sunday
8,187104791.8922311
2,1, 1, 1, 0,17,10.00,20.00,Sunday
8,188968334.44980952
2,1, 1, 1, 0,17,20.00,30.00,Sunday
8,190136837.75166294
2,1, 1, 1, 0,17,30.00,40.00,Sunday
8,191099905.23046076
2,1, 1, 1, 0,17,40.00,50.00,Sunday
8,191901278.5456965
2,1, 1, 1, 0,17,50.00,60.00,Sunday
8,192598610.4841977
2,1, 1, 1, 0,18, 0.00,10.00,Sunday
8,194569234.0033266
2,1, 1, 1, 0,18,10.00,20.00,Sunday
8,195332986.7402227
2,1, 1, 1, 0,18,20.00,30.00,Sunday
8,195396297.20387504
2,1, 1, 1, 0,18,30.00,40.00,Sunday
8,195898747.93070418
2,1, 1, 1, 0,18,40.00,50.00,Sunday
8,196584594.4942593
2,1, 1, 1, 0,18,50.00,60.00,Sunday
8,196898731.83677852
2,1, 1, 1, 0,19, 0.00,10.00,Sunday
8,192132465.1957212
2,1, 1, 1, 0,19,10.00,20.00,Sunday
8,190301195.3480753
2,1, 1, 1, 0,19,20.00,30.00,Sunday
8,188621092.27382416
2,1, 1, 1, 0,19,30.00,40.00,Sunday
8,185907559.66042045
2,1, 1, 1, 0,19,40.00,50.00,Sunday
8,184150559.68530142
2,1, 1, 1, 0,19,50.00,60.00,Sunday
8,181979744.39599326
2,1, 1, 1, 0,20, 0.00,10.00,Sunday
8,20322277.267995574
2,1, 1, 1, 0,20,10.00,20.00,Sunday
8,25015977.66117102
2,1, 1, 1, 0,20,20.00,30.00,Sunday
8,42123529.76993246
2,1, 1, 1, 0,20,30.00,40.00,Sunday
8,51123632.52350618
2,1, 1, 1, 0,20,40.00,50.00,Sunday
8,55979916.962441415
2,1, 1, 1, 0,20,50.00,60.00,Sunday
8,52788410.58001936
2,1, 1, 1, 0,21, 0.00,10.00,Sunday
8,59244449.97539557
2,1, 1, 1, 0,21,10.00,20.00,Sunday
8,60847942.492975175
2,1, 1, 1, 0,21,20.00,30.00,Sunday
8,60191081.9432414
2,1, 1, 1, 0,21,30.00,40.00,Sunday
8,60003694.888513654
2,1, 1, 1, 0,21,40.00,50.00,Sunday
8,59664455.958233394
2,1, 1, 1, 0,21,50.00,60.00,Sunday
8,59772948.36364319
2,1, 1, 1, 0,22, 0.00,10.00,Sunday
8,60799779.70537261
2,1, 1, 1, 0,22,10.00,20.00,Sunday
8,60063029.78504256
2,1, 1, 1, 0,22,20.00,30.00,Sunday
8,58880080.28324678
2,1, 1, 1, 0,22,30.00,40.00,Sunday
8,58184886.58926847
2,1, 1, 1, 0,22,40.00,50.00,Sunday
8,56283284.08014152
2,1, 1, 1, 0,22,50.00,60.00,Sunday
8,54877025.062403336
2,1, 1, 1, 0,23, 0.00,10.00,Sunday
8,59746889.5678566
2,1, 1, 1, 0,23,10.00,20.00,Sunday
8,64110186.701188035
2,1, 1, 1, 0,23,20.00,30.00,Sunday
8,67164225.19960664
2,1, 1, 1, 0,23,30.00,40.00,Sunday
8,70745439.08541647
2,1, 1, 1, 0,23,40.00,50.00,Sunday
8,74291459.03171004
2,1, 1, 1, 0,23,50.00,60.00,Sunday
8,78372784.5481419
2,1, 1, 1, 0,24, 0.00,10.00,Sunday
8,78262976.56938173
2,1, 1, 1, 0,24,10.00,20.00,Sunday
8,78292851.4820587
2,1, 1, 1, 0,24,20.00,30.00,Sunday
8,78254099.58415242
2,1, 1, 1, 0,24,30.00,40.00,Sunday
8,78765243.63716452
2,1, 1, 1, 0,24,40.00,50.00,Sunday
8,78139143.735775
2,1, 1, 1, 0,24,50.00,60.00,Sunday
8,78065425.29195474
2,2, 1, 2, 0, 1, 0.00,10.00,Monday
8,76527134.51386055
2,2, 1, 2, 0, 1,10.00,20.00,Monday
8,75405825.61078437
2,2, 1, 2, 0, 1,20.00,30.00,Monday
8,73137759.93365645
2,2, 1, 2, 0, 1,30.00,40.00,Monday
8,71429011.16134967
2,2, 1, 2, 0, 1,40.00,50.00,Monday
8,69718812.49382882
2,2, 1, 2, 0, 1,50.00,60.00,Monday
8,68570847.38973284
2,2, 1, 2, 0, 2, 0.00,10.00,Monday
8,66403720.416232206
2,2, 1, 2, 0, 2,10.00,20.00,Monday
8,64726274.15500348
2,2, 1, 2, 0, 2,20.00,30.00,Monday
8,63038982.31263432
2,2, 1, 2, 0, 2,30.00,40.00,Monday
8,61913000.194553636
2,2, 1, 2, 0, 2,40.00,50.00,Monday
8,59657711.0461781
2,2, 1, 2, 0, 2,50.00,60.00,Monday
8,57964204.19251945
2,2, 1, 2, 0, 3, 0.00,10.00,Monday
8,59798168.10880125
2,2, 1, 2, 0, 3,10.00,20.00,Monday
8,62150358.30108471
2,2, 1, 2, 0, 3,20.00,30.00,Monday
8,63369632.40937792
2,2, 1, 2, 0, 3,30.00,40.00,Monday
8,65156197.19827679
2,2, 1, 2, 0, 3,40.00,50.00,Monday
8,66947024.205238685
2,2, 1, 2, 0, 3,50.00,60.00,Monday
8,69307059.35921836
2,2, 1, 2, 0, 4, 0.00,10.00,Monday
8,70929530.94199948
2,2, 1, 2, 0, 4,10.00,20.00,Monday
8,73071396.90831077
2,2, 1, 2, 0, 4,20.00,30.00,Monday
8,75201322.37202261
2,2, 1, 2, 0, 4,30.00,40.00,Monday
8,77807491.9218527
2,2, 1, 2, 0, 4,40.00,50.00,Monday
8,79518355.35433593
2,2, 1, 2, 0, 4,50.00,60.00,Monday
8,81545978.9647084
2,2, 1, 2, 0, 5, 0.00,10.00,Monday
8,82341419.59218012
2,2, 1, 2, 0, 5,10.00,20.00,Monday
8,83597674.40783875
2,2, 1, 2, 0, 5,20.00,30.00,Monday
8,84256399.16234757
2,2, 1, 2, 0, 5,30.00,40.00,Monday
8,84951120.7342545
2,2, 1, 2, 0, 5,40.00,50.00,Monday
8,85825607.47365429
2,2, 1, 2, 0, 5,50.00,60.00,Monday
8,87011084.25230683
2,2, 1, 2, 0, 6, 0.00,10.00,Monday
8,84948056.50791171
2,2, 1, 2, 0, 6,10.00,20.00,Monday
8,82755575.73320119
2,2, 1, 2, 0, 6,20.00,30.00,Monday
8,80721229.40779659
2,2, 1, 2, 0, 6,30.00,40.00,Monday
8,78930711.42569272
2,2, 1, 2, 0, 6,40.00,50.00,Monday
8,76931590.01397458
2,2, 1, 2, 0, 6,50.00,60.00,Monday
8,74558514.22499834
2,2, 1, 2, 0, 7, 0.00,10.00,Monday
8,75998756.67389724
2,2, 1, 2, 0, 7,10.00,20.00,Monday
8,77572987.36905034
2,2, 1, 2, 0, 7,20.00,30.00,Monday
8,79051065.75002185
2,2, 1, 2, 0, 7,30.00,40.00,Monday
8,80040679.78709172
2,2, 1, 2, 0, 7,40.00,50.00,Monday
8,81367841.52808352
2,2, 1, 2, 0, 7,50.00,60.00,Monday
8,82871528.32540995
2,2, 1, 2, 0, 8, 0.00,10.00,Monday
8,140963846.69857618
2,2, 1, 2, 0, 8,10.00,20.00,Monday
8,107983304.33971252
2,2, 1, 2, 0, 8,20.00,30.00,Monday
8,105350191.42833515
2,2, 1, 2, 0, 8,30.00,40.00,Monday
8,99440236.72998923
2,2, 1, 2, 0, 8,40.00,50.00,Monday
8,94953032.9311046
2,2, 1, 2, 0, 8,50.00,60.00,Monday
8,90939092.26528041
2,2, 1, 2, 0, 9, 0.00,10.00,Monday
8,127224597.0755576
2,2, 1, 2, 0, 9,10.00,20.00,Monday
8,137840969.96878806
2,2, 1, 2, 0, 9,20.00,30.00,Monday
8,105413741.33001731
2,2, 1, 2, 0, 9,30.00,40.00,Monday
8,122059331.49423304
2,2, 1, 2, 0, 9,40.00,50.00,Monday
8,121443116.17470963
2,2, 1, 2, 0, 9,50.00,60.00,Monday
8,123688068.45617172
2,2, 1, 2, 0,10, 0.00,10.00,Monday
8,211219630.73242077
2,2, 1, 2, 0,10,10.00,20.00,Monday
8,204036433.6166041
2,2, 1, 2, 0,10,20.00,30.00,Monday
8,198284178.29115647
2,2, 1, 2, 0,10,30.00,40.00,Monday
8,193109648.84406087
2,2, 1, 2, 0,10,40.00,50.00,Monday
8,188059822.0707839
2,2, 1, 2, 0,10,50.00,60.00,Monday
8,183165053.99306667
2,2, 1, 2, 0,11, 0.00,10.00,Monday
8,182290405.37846422
2,2, 1, 2, 0,11,10.00,20.00,Monday
8,185951828.8831478
2,2, 1, 2, 0,11,20.00,30.00,Monday
8,190146996.60434395
2,2, 1, 2, 0,11,30.00,40.00,Monday
8,194523685.62007228
2,2, 1, 2, 0,11,40.00,50.00,Monday
8,198889325.3490554
2,2, 1, 2, 0,11,50.00,60.00,Monday
8,203351403.792413
2,2, 1, 2, 0,12, 0.00,10.00,Monday
8,196494411.87119004
2,2, 1, 2, 0,12,10.00,20.00,Monday
8,192000921.70819414
2,2, 1, 2, 0,12,20.00,30.00,Monday
8,187821506.9120965
2,2, 1, 2, 0,12,30.00,40.00,Monday
8,183773253.14522862
2,2, 1, 2, 0,12,40.00,50.00,Monday
8,179827057.32740763
2,2, 1, 2, 0,12,50.00,60.00,Monday
8,175973913.13603842
2,2, 1, 2, 0,13, 0.00,10.00,Monday
8,174542645.60417882
2,2, 1, 2, 0,13,10.00,20.00,Monday
8,173485062.09935394
2,2, 1, 2, 0,13,20.00,30.00,Monday
8,172655301.2949244
2,2, 1, 2, 0,13,30.00,40.00,Monday
8,171839906.16571406
2,2, 1, 2, 0,13,40.00,50.00,Monday
8,171050074.18411073
2,2, 1, 2, 0,13,50.00,60.00,Monday
8,170278229.63080782
2,2, 1, 2, 0,14, 0.00,10.00,Monday
8,171094372.0851442
2,2, 1, 2, 0,14,10.00,20.00,Monday
8,172078995.62263906
2,2, 1, 2, 0,14,20.00,30.00,Monday
8,173136412.32686678
2,2, 1, 2, 0,14,30.00,40.00,Monday
8,174117596.48317122
2,2, 1, 2, 0,14,40.00,50.00,Monday
8,175077308.9125939
2,2, 1, 2, 0,14,50.00,60.00,Monday
8,176028072.862048
2,2, 1, 2, 0,15, 0.00,10.00,Monday
8,175687007.46573415
2,2, 1, 2, 0,15,10.00,20.00,Monday
8,175333149.34547138
2,2, 1, 2, 0,15,20.00,30.00,Monday
8,175000599.19367218
2,2, 1, 2, 0,15,30.00,40.00,Monday
8,174863701.62663835
2,2, 1, 2, 0,15,40.00,50.00,Monday
8,174805715.63852122
2,2, 1, 2, 0,15,50.00,60.00,Monday
8,174793283.30830774
2,2, 1, 2, 0,16, 0.00,10.00,Monday
8,174328586.0039038
2,2, 1, 2, 0,16,10.00,20.00,Monday
8,173098862.84195694
2,2, 1, 2, 0,16,20.00,30.00,Monday
8,171817400.10937393
2,2, 1, 2, 0,16,30.00,40.00,Monday
8,170684222.21797112
2,2, 1, 2, 0,16,40.00,50.00,Monday
8,169650437.12076908
2,2, 1, 2, 0,16,50.00,60.00,Monday
8,168703779.36217397
2,2, 1, 2, 0,17, 0.00,10.00,Monday
8,168061964.66538286
2,2, 1, 2, 0,17,10.00,20.00,Monday
8,166778649.98881215
2,2, 1, 2, 0,17,20.00,30.00,Monday
8,164711007.68667546
2,2, 1, 2, 0,17,30.00,40.00,Monday
8,162411058.11169767
2,2, 1, 2, 0,17,40.00,50.00,Monday
8,160031296.429119
2,2, 1, 2, 0,17,50.00,60.00,Monday
8,157011486.4974818
2,2, 1, 2, 0,18, 0.00,10.00,Monday
8,155842675.65724894
2,2, 1, 2, 0,18,10.00,20.00,Monday
8,153826305.2460476
2,2, 1, 2, 0,18,20.00,30.00,Monday
8,151481997.24490228
2,2, 1, 2, 0,18,30.00,40.00,Monday
8,149062217.71906924
2,2, 1, 2, 0,18,40.00,50.00,Monday
8,146592260.27811
2,2, 1, 2, 0,18,50.00,60.00,Monday
8,144085192.3192922
2,2, 1, 2, 0,19, 0.00,10.00,Monday
8,143584432.00052828
2,2, 1, 2, 0,19,10.00,20.00,Monday
8,142842344.46918932
2,2, 1, 2, 0,19,20.00,30.00,Monday
8,141611851.9664294
2,2, 1, 2, 0,19,30.00,40.00,Monday
8,141018448.41885722
2,2, 1, 2, 0,19,40.00,50.00,Monday
8,140346914.70675308
2,2, 1, 2, 0,19,50.00,60.00,Monday
8,139453789.45477042
2,2, 1, 2, 0,20, 0.00,10.00,Monday
8,118691188.01262902
2,2, 1, 2, 0,20,10.00,20.00,Monday
8,119029358.68280885
2,2, 1, 2, 0,20,20.00,30.00,Monday
8,119132956.68373623
2,2, 1, 2, 0,20,30.00,40.00,Monday
8,120549590.2622035
2,2, 1, 2, 0,20,40.00,50.00,Monday
8,124626974.92544454
2,2, 1, 2, 0,20,50.00,60.00,Monday
8,121201297.69490047
2,2, 1, 2, 0,21, 0.00,10.00,Monday
8,121089363.66299267
2,2, 1, 2, 0,21,10.00,20.00,Monday
8,121496282.38596812
2,2, 1, 2, 0,21,20.00,30.00,Monday
8,120600228.19735935
2,2, 1, 2, 0,21,30.00,40.00,Monday
8,119780097.13570102
2,2, 1, 2, 0,21,40.00,50.00,Monday
8,119389229.58015826
2,2, 1, 2, 0,21,50.00,60.00,Monday
8,117970440.08019787
2,2, 1, 2, 0,22, 0.00,10.00,Monday
8,6904506.049702551
2,2, 1, 2, 0,22,10.00,20.00,Monday
8,8206181.377186436
2,2, 1, 2, 0,22,20.00,30.00,Monday
8,10309641.655440493
2,2, 1, 2, 0,22,30.00,40.00,Monday
8,12112431.100844333
2,2, 1, 2, 0,22,40.00,50.00,Monday
8,14641775.482669454
2,2, 1, 2, 0,22,50.00,60.00,Monday
8,21713049.604903348
2,2, 1, 2, 0,23, 0.00,10.00,Monday
8,40138200.00895296
2,2, 1, 2, 0,23,10.00,20.00,Monday
8,34237486.355194904
2,2, 1, 2, 0,23,20.00,30.00,Monday
8,39262517.46388844
2,2, 1, 2, 0,23,30.00,40.00,Monday
8,41737354.277525194
2,2, 1, 2, 0,23,40.00,50.00,Monday
8,44253482.502406836
2,2, 1, 2, 0,23,50.00,60.00,Monday
8,46650114.843335345
2,2, 1, 2, 0,24, 0.00,10.00,Monday
8,50161896.64794565
2,2, 1, 2, 0,24,10.00,20.00,Monday
8,50280895.28976054
2,2, 1, 2, 0,24,20.00,30.00,Monday
8,50494315.23182237
2,2, 1, 2, 0,24,30.00,40.00,Monday
8,50642946.012429155
2,2, 1, 2, 0,24,40.00,50.00,Monday
8,51271486.39405372
2,2, 1, 2, 0,24,50.00,60.00,Monday
8,50732568.16576153
2,3, 1, 3, 0, 1, 0.00,10.00,Tuesday
8,51363453.265787825
2,3, 1, 3, 0, 1,10.00,20.00,Tuesday
8,50974425.01866894
2,3, 1, 3, 0, 1,20.00,30.00,Tuesday
8,50965684.510930575
2,3, 1, 3, 0, 1,30.00,40.00,Tuesday
8,49816397.896057
2,3, 1, 3, 0, 1,40.00,50.00,Tuesday
8,49192666.23494609
2,3, 1, 3, 0, 1,50.00,60.00,Tuesday
8,48547079.328923516
2,3, 1, 3, 0, 2, 0.00,10.00,Tuesday
8,52099319.017903455
2,3, 1, 3, 0, 2,10.00,20.00,Tuesday
8,54119728.39798052
2,3, 1, 3, 0, 2,20.00,30.00,Tuesday
8,56632496.76301124
2,3, 1, 3, 0, 2,30.00,40.00,Tuesday
8,59142399.871862255
2,3, 1, 3, 0, 2,40.00,50.00,Tuesday
8,62204551.146525964
2,3, 1, 3, 0, 2,50.00,60.00,Tuesday
8,64152316.5556761
2,3, 1, 3, 0, 3, 0.00,10.00,Tuesday
8,64047007.27837393
2,3, 1, 3, 0, 3,10.00,20.00,Tuesday
8,63760199.08549803
2,3, 1, 3, 0, 3,20.00,30.00,Tuesday
8,63999381.86842561
2,3, 1, 3, 0, 3,30.00,40.00,Tuesday
8,63118853.254835345
2,3, 1, 3, 0, 3,40.00,50.00,Tuesday
8,62789405.8047114
2,3, 1, 3, 0, 3,50.00,60.00,Tuesday
8,62456048.68609579
2,3, 1, 3, 0, 4, 0.00,10.00,Tuesday
8,66710907.70172632
2,3, 1, 3, 0, 4,10.00,20.00,Tuesday
8,69763902.82941735
2,3, 1, 3, 0, 4,20.00,30.00,Tuesday
8,73356476.8193468
2,3, 1, 3, 0, 4,30.00,40.00,Tuesday
8,76944433.90771763
2,3, 1, 3, 0, 4,40.00,50.00,Tuesday
8,81082946.97213197
2,3, 1, 3, 0, 4,50.00,60.00,Tuesday
8,84101859.50109276
2,3, 1, 3, 0, 5, 0.00,10.00,Tuesday
8,83556162.73400444
2,3, 1, 3, 0, 5,10.00,20.00,Tuesday
8,82979519.20731445
2,3, 1, 3, 0, 5,20.00,30.00,Tuesday
8,82955236.78312667
2,3, 1, 3, 0, 5,30.00,40.00,Tuesday
8,81814283.5410064
2,3, 1, 3, 0, 5,40.00,50.00,Tuesday
8,81229777.38464184
2,3, 1, 3, 0, 5,50.00,60.00,Tuesday
8,80644674.29973848
2,3, 1, 3, 0, 6, 0.00,10.00,Tuesday
8,82420715.85086387
2,3, 1, 3, 0, 6,10.00,20.00,Tuesday
8,83057076.38419022
2,3, 1, 3, 0, 6,20.00,30.00,Tuesday
8,84242008.40959328
2,3, 1, 3, 0, 6,30.00,40.00,Tuesday
8,85421649.08122537
2,3, 1, 3, 0, 6,40.00,50.00,Tuesday
8,87152549.75414537
2,3, 1, 3, 0, 6,50.00,60.00,Tuesday
8,87761693.25434634
2,3, 1, 3, 0, 7, 0.00,10.00,Tuesday
8,83553706.85676964
2,3, 1, 3, 0, 7,10.00,20.00,Tuesday
8,79388913.24733576
2,3, 1, 3, 0, 7,20.00,30.00,Tuesday
8,75817110.80670956
2,3, 1, 3, 0, 7,30.00,40.00,Tuesday
8,71161281.15094846
2,3, 1, 3, 0, 7,40.00,50.00,Tuesday
8,67097529.564897515
2,3, 1, 3, 0, 7,50.00,60.00,Tuesday
8,63067792.08873834
2,3, 1, 3, 0, 8, 0.00,10.00,Tuesday
8,123692502.33704528
2,3, 1, 3, 0, 8,10.00,20.00,Tuesday
8,93021554.24540989
2,3, 1, 3, 0, 8,20.00,30.00,Tuesday
8,96863796.14040099
2,3, 1, 3, 0, 8,30.00,40.00,Tuesday
8,94065191.22689337
2,3, 1, 3, 0, 8,40.00,50.00,Tuesday
8,94431310.6574621
2,3, 1, 3, 0, 8,50.00,60.00,Tuesday
8,95068668.4144505
2,3, 1, 3, 0, 9, 0.00,10.00,Tuesday
8,126201455.42869012
2,3, 1, 3, 0, 9,10.00,20.00,Tuesday
8,132980164.83372118
2,3, 1, 3, 0, 9,20.00,30.00,Tuesday
8,94217668.27542737
2,3, 1, 3, 0, 9,30.00,40.00,Tuesday
8,105542149.23771921
2,3, 1, 3, 0, 9,40.00,50.00,Tuesday
8,99399282.00415441
2,3, 1, 3, 0, 9,50.00,60.00,Tuesday
8,96191910.01687393
2,3, 1, 3, 0,10, 0.00,10.00,Tuesday
8,165390611.52855313
2,3, 1, 3, 0,10,10.00,20.00,Tuesday
8,161752432.32469577
2,3, 1, 3, 0,10,20.00,30.00,Tuesday
8,159335404.53946418
2,3, 1, 3, 0,10,30.00,40.00,Tuesday
8,157189154.90016332
2,3, 1, 3, 0,10,40.00,50.00,Tuesday
8,155061700.8568679
2,3, 1, 3, 0,10,50.00,60.00,Tuesday
8,153082726.16606498
2,3, 1, 3, 0,11, 0.00,10.00,Tuesday
8,148766850.3126274
2,3, 1, 3, 0,11,10.00,20.00,Tuesday
8,147839192.6267638
2,3, 1, 3, 0,11,20.00,30.00,Tuesday
8,147372880.20839182
2,3, 1, 3, 0,11,30.00,40.00,Tuesday
8,146947773.42798358
2,3, 1, 3, 0,11,40.00,50.00,Tuesday
8,146690983.1491144
2,3, 1, 3, 0,11,50.00,60.00,Tuesday
8,146518983.1789872
2,3, 1, 3, 0,12, 0.00,10.00,Tuesday
8,143588061.99366102
2,3, 1, 3, 0,12,10.00,20.00,Tuesday
8,141938557.568291
2,3, 1, 3, 0,12,20.00,30.00,Tuesday
8,140513321.04274598
2,3, 1, 3, 0,12,30.00,40.00,Tuesday
8,139159686.8785659
2,3, 1, 3, 0,12,40.00,50.00,Tuesday
8,137858020.1918594
2,3, 1, 3, 0,12,50.00,60.00,Tuesday
8,136765960.32723
2,3, 1, 3, 0,13, 0.00,10.00,Tuesday
8,134835955.48338473
2,3, 1, 3, 0,13,10.00,20.00,Tuesday
8,133541579.25075094
2,3, 1, 3, 0,13,20.00,30.00,Tuesday
8,132377578.1914499
2,3, 1, 3, 0,13,30.00,40.00,Tuesday
8,131294404.52168117
2,3, 1, 3, 0,13,40.00,50.00,Tuesday
8,130247925.91516484
2,3, 1, 3, 0,13,50.00,60.00,Tuesday
8,129214117.30517018
2,3, 1, 3, 0,14, 0.00,10.00,Tuesday
8,128844528.78102092
2,3, 1, 3, 0,14,10.00,20.00,Tuesday
8,128914198.2207298
2,3, 1, 3, 0,14,20.00,30.00,Tuesday
8,129085970.8031871
2,3, 1, 3, 0,14,30.00,40.00,Tuesday
8,128936517.91975111
2,3, 1, 3, 0,14,40.00,50.00,Tuesday
8,128700266.73707147
2,3, 1, 3, 0,14,50.00,60.00,Tuesday
8,128532206.90388434
2,3, 1, 3, 0,15, 0.00,10.00,Tuesday
8,126588599.84834836
2,3, 1, 3, 0,15,10.00,20.00,Tuesday
8,125445202.64783953
2,3, 1, 3, 0,15,20.00,30.00,Tuesday
8,124332325.5904686
2,3, 1, 3, 0,15,30.00,40.00,Tuesday
8,123373189.08234733
2,3, 1, 3, 0,15,40.00,50.00,Tuesday
8,122499655.65916556
2,3, 1, 3, 0,15,50.00,60.00,Tuesday
8,121640566.16013795
2,3, 1, 3, 0,16, 0.00,10.00,Tuesday
8,119259167.88275827
2,3, 1, 3, 0,16,10.00,20.00,Tuesday
8,117424480.14574587
2,3, 1, 3, 0,16,20.00,30.00,Tuesday
8,115682713.76037924
2,3, 1, 3, 0,16,30.00,40.00,Tuesday
8,114184792.79044306
2,3, 1, 3, 0,16,40.00,50.00,Tuesday
8,112868604.74060223
2,3, 1, 3, 0,16,50.00,60.00,Tuesday
8,111652649.6396577
2,3, 1, 3, 0,17, 0.00,10.00,Tuesday
8,110435866.35531121
2,3, 1, 3, 0,17,10.00,20.00,Tuesday
8,109638959.05077538
2,3, 1, 3, 0,17,20.00,30.00,Tuesday
8,108273096.51916671
2,3, 1, 3, 0,17,30.00,40.00,Tuesday
8,106754655.0196846
2,3, 1, 3, 0,17,40.00,50.00,Tuesday
8,105165978.50753747
2,3, 1, 3, 0,17,50.00,60.00,Tuesday
8,102966257.28874034
2,3, 1, 3, 0,18, 0.00,10.00,Tuesday
8,102650643.84258375
2,3, 1, 3, 0,18,10.00,20.00,Tuesday
8,102027088.49953865
2,3, 1, 3, 0,18,20.00,30.00,Tuesday
8,101156042.02755108
2,3, 1, 3, 0,18,30.00,40.00,Tuesday
8,100262652.06847703
2,3, 1, 3, 0,18,40.00,50.00,Tuesday
8,99349569.227247
2,3, 1, 3, 0,18,50.00,60.00,Tuesday
8,98418302.27530822
2,3, 1, 3, 0,19, 0.00,10.00,Tuesday
8,97340169.36924677
2,3, 1, 3, 0,19,10.00,20.00,Tuesday
8,96107223.96752124
2,3, 1, 3, 0,19,20.00,30.00,Tuesday
8,94552402.36785527
2,3, 1, 3, 0,19,30.00,40.00,Tuesday
8,93642173.16175282
2,3, 1, 3, 0,19,40.00,50.00,Tuesday
8,92501958.25037716
2,3, 1, 3, 0,19,50.00,60.00,Tuesday
8,91215792.57129458
2,3, 1, 3, 0,20, 0.00,10.00,Tuesday
8,78057896.18422358
2,3, 1, 3, 0,20,10.00,20.00,Tuesday
8,80672839.5246386
2,3, 1, 3, 0,20,20.00,30.00,Tuesday
8,82787808.79186966
2,3, 1, 3, 0,20,30.00,40.00,Tuesday
8,84098226.7077916
2,3, 1, 3, 0,20,40.00,50.00,Tuesday
8,87051996.97924067
2,3, 1, 3, 0,20,50.00,60.00,Tuesday
8,90267062.15375748
2,3, 1, 3, 0,21, 0.00,10.00,Tuesday
8,92560788.02199009
2,3, 1, 3, 0,21,10.00,20.00,Tuesday
8,93327566.21261744
2,3, 1, 3, 0,21,20.00,30.00,Tuesday
8,93692570.93100566
2,3, 1, 3, 0,21,30.00,40.00,Tuesday
8,94229750.13628766
2,3, 1, 3, 0,21,40.00,50.00,Tuesday
8,94870036.73436965
2,3, 1, 3, 0,21,50.00,60.00,Tuesday
8,94546641.16942333
2,3, 1, 3, 0,22, 0.00,10.00,Tuesday
8,7348288.692269745
2,3, 1, 3, 0,22,10.00,20.00,Tuesday
8,8815293.22248373
2,3, 1, 3, 0,22,20.00,30.00,Tuesday
8,11058319.003543576
2,3, 1, 3, 0,22,30.00,40.00,Tuesday
8,13316768.201520307
2,3, 1, 3, 0,22,40.00,50.00,Tuesday
8,22581052.430552885
2,3, 1, 3, 0,22,50.00,60.00,Tuesday
8,36667966.921578445
2,3, 1, 3, 0,23, 0.00,10.00,Tuesday
8,28923101.139870025
2,3, 1, 3, 0,23,10.00,20.00,Tuesday
8,31600333.902831007
2,3, 1, 3, 0,23,20.00,30.00,Tuesday
8,31983471.72605204
2,3, 1, 3, 0,23,30.00,40.00,Tuesday
8,30869931.947499465
2,3, 1, 3, 0,23,40.00,50.00,Tuesday
8,30234005.230319116
2,3, 1, 3, 0,23,50.00,60.00,Tuesday
8,29516588.61415973
2,3, 1, 3, 0,24, 0.00,10.00,Tuesday
8,33285067.031056657
2,3, 1, 3, 0,24,10.00,20.00,Tuesday
8,33962281.12310279
2,3, 1, 3, 0,24,20.00,30.00,Tuesday
8,34738195.23575304
2,3, 1, 3, 0,24,30.00,40.00,Tuesday
8,35455418.88159417
2,3, 1, 3, 0,24,40.00,50.00,Tuesday
8,36656429.08563655
2,3, 1, 3, 0,24,50.00,60.00,Tuesday
8,36689997.37246875
2,4, 1, 4, 0, 1, 0.00,10.00,Wednesday
8,38187205.46090123
2,4, 1, 4, 0, 1,10.00,20.00,Wednesday
8,38635193.02318918
2,4, 1, 4, 0, 1,20.00,30.00,Wednesday
8,39448592.30102929
2,4, 1, 4, 0, 1,30.00,40.00,Wednesday
8,39116791.0484168
2,4, 1, 4, 0, 1,40.00,50.00,Wednesday
8,39309642.30397283
2,4, 1, 4, 0, 1,50.00,60.00,Wednesday
8,39478793.148226015
2,4, 1, 4, 0, 2, 0.00,10.00,Wednesday
8,41673352.552865066
2,4, 1, 4, 0, 2,10.00,20.00,Wednesday
8,42266704.73477759
2,4, 1, 4, 0, 2,20.00,30.00,Wednesday
8,43334567.748249106
2,4, 1, 4, 0, 2,30.00,40.00,Wednesday
8,44387778.86485774
2,4, 1, 4, 0, 2,40.00,50.00,Wednesday
8,45984283.315636404
2,4, 1, 4, 0, 2,50.00,60.00,Wednesday
8,46453599.67093739
2,4, 1, 4, 0, 3, 0.00,10.00,Wednesday
8,48170351.72543557
2,4, 1, 4, 0, 3,10.00,20.00,Wednesday
8,49714765.03054223
2,4, 1, 4, 0, 3,20.00,30.00,Wednesday
8,51810039.78867209
2,4, 1, 4, 0, 3,30.00,40.00,Wednesday
8,52807574.138868
2,4, 1, 4, 0, 3,40.00,50.00,Wednesday
8,54381230.23063413
2,4, 1, 4, 0, 3,50.00,60.00,Wednesday
8,55974309.296953075
2,4, 1, 4, 0, 4, 0.00,10.00,Wednesday
8,56105015.41950092
2,4, 1, 4, 0, 4,10.00,20.00,Wednesday
8,54967644.540102325
2,4, 1, 4, 0, 4,20.00,30.00,Wednesday
8,54360210.31208057
2,4, 1, 4, 0, 4,30.00,40.00,Wednesday
8,53744287.7593253
2,4, 1, 4, 0, 4,40.00,50.00,Wednesday
8,53677492.096964136
2,4, 1, 4, 0, 4,50.00,60.00,Wednesday
8,52483821.78265954
2,4, 1, 4, 0, 5, 0.00,10.00,Wednesday
8,52671083.30186661
2,4, 1, 4, 0, 5,10.00,20.00,Wednesday
8,52708385.76283563
2,4, 1, 4, 0, 5,20.00,30.00,Wednesday
8,53275562.490912125
2,4, 1, 4, 0, 5,30.00,40.00,Wednesday
8,52715704.18924079
2,4, 1, 4, 0, 5,40.00,50.00,Wednesday
8,52705144.943042025
2,4, 1, 4, 0, 5,50.00,60.00,Wednesday
8,52685851.18560521
2,4, 1, 4, 0, 6, 0.00,10.00,Wednesday
8,53039512.723828375
2,4, 1, 4, 0, 6,10.00,20.00,Wednesday
8,52095483.754974216
2,4, 1, 4, 0, 6,20.00,30.00,Wednesday
8,51674621.21571005
2,4, 1, 4, 0, 6,30.00,40.00,Wednesday
8,51243493.021935716
2,4, 1, 4, 0, 6,40.00,50.00,Wednesday
8,51363084.01410737
2,4, 1, 4, 0, 6,50.00,60.00,Wednesday
8,50355802.90569471
2,4, 1, 4, 0, 7, 0.00,10.00,Wednesday
8,49597504.7091601
2,4, 1, 4, 0, 7,10.00,20.00,Wednesday
8,48823388.98165625
2,4, 1, 4, 0, 7,20.00,30.00,Wednesday
8,48608841.912674494
2,4, 1, 4, 0, 7,30.00,40.00,Wednesday
8,47275206.96362105
2,4, 1, 4, 0, 7,40.00,50.00,Wednesday
8,46504446.66876565
2,4, 1, 4, 0, 7,50.00,60.00,Wednesday
8,45737359.13577097
2,4, 1, 4, 0, 8, 0.00,10.00,Wednesday
8,102147679.54849124
2,4, 1, 4, 0, 8,10.00,20.00,Wednesday
8,69466775.60588898
2,4, 1, 4, 0, 8,20.00,30.00,Wednesday
8,73600043.77162112
2,4, 1, 4, 0, 8,30.00,40.00,Wednesday
8,68075041.14728473
2,4, 1, 4, 0, 8,40.00,50.00,Wednesday
8,66755669.57628004
2,4, 1, 4, 0, 8,50.00,60.00,Wednesday
8,65470973.28994248
2,4, 1, 4, 0, 9, 0.00,10.00,Wednesday
8,113393359.55947751
2,4, 1, 4, 0, 9,10.00,20.00,Wednesday
8,100094896.4073956
2,4, 1, 4, 0, 9,20.00,30.00,Wednesday
8,81328306.73480363
2,4, 1, 4, 0, 9,30.00,40.00,Wednesday
8,83050185.9782115
2,4, 1, 4, 0, 9,40.00,50.00,Wednesday
8,81782732.29243304
2,4, 1, 4, 0, 9,50.00,60.00,Wednesday
8,81440540.71785836
2,4, 1, 4, 0,10, 0.00,10.00,Wednesday
8,139625651.13406178
2,4, 1, 4, 0,10,10.00,20.00,Wednesday
8,137706757.07115746
2,4, 1, 4, 0,10,20.00,30.00,Wednesday
8,137094909.65071034
2,4, 1, 4, 0,10,30.00,40.00,Wednesday
8,136746111.3002415
2,4, 1, 4, 0,10,40.00,50.00,Wednesday
8,136586439.60995954
2,4, 1, 4, 0,10,50.00,60.00,Wednesday
8,136619372.52408117
2,4, 1, 4, 0,11, 0.00,10.00,Wednesday
8,131471548.72783008
2,4, 1, 4, 0,11,10.00,20.00,Wednesday
8,130539137.63114794
2,4, 1, 4, 0,11,20.00,30.00,Wednesday
8,130112881.24486752
2,4, 1, 4, 0,11,30.00,40.00,Wednesday
8,129740989.3349922
2,4, 1, 4, 0,11,40.00,50.00,Wednesday
8,129519963.77435018
2,4, 1, 4, 0,11,50.00,60.00,Wednesday
8,129368264.0898005
2,4, 1, 4, 0,12, 0.00,10.00,Wednesday
8,125871724.79868147
2,4, 1, 4, 0,12,10.00,20.00,Wednesday
8,125158230.52139248
2,4, 1, 4, 0,12,20.00,30.00,Wednesday
8,124542253.13963285
2,4, 1, 4, 0,12,30.00,40.00,Wednesday
8,124174976.2173283
2,4, 1, 4, 0,12,40.00,50.00,Wednesday
8,124015748.01006587
2,4, 1, 4, 0,12,50.00,60.00,Wednesday
8,123974123.93692014
2,4, 1, 4, 0,13, 0.00,10.00,Wednesday
8,122141464.94152054
2,4, 1, 4, 0,13,10.00,20.00,Wednesday
8,121030850.90645938
2,4, 1, 4, 0,13,20.00,30.00,Wednesday
8,120039511.3401028
2,4, 1, 4, 0,13,30.00,40.00,Wednesday
8,119008280.43652909
2,4, 1, 4, 0,13,40.00,50.00,Wednesday
8,117987476.51911512
2,4, 1, 4, 0,13,50.00,60.00,Wednesday
8,116980475.20709231
2,4, 1, 4, 0,14, 0.00,10.00,Wednesday
8,117766514.92792971
2,4, 1, 4, 0,14,10.00,20.00,Wednesday
8,118560863.64771594
2,4, 1, 4, 0,14,20.00,30.00,Wednesday
8,119419073.3736733
2,4, 1, 4, 0,14,30.00,40.00,Wednesday
8,120302316.85548986
2,4, 1, 4, 0,14,40.00,50.00,Wednesday
8,121200356.71811318
2,4, 1, 4, 0,14,50.00,60.00,Wednesday
8,122109071.1590403
2,4, 1, 4, 0,15, 0.00,10.00,Wednesday
8,121290193.53008977
2,4, 1, 4, 0,15,10.00,20.00,Wednesday
8,120070738.08765179
2,4, 1, 4, 0,15,20.00,30.00,Wednesday
8,118821458.18356727
2,4, 1, 4, 0,15,30.00,40.00,Wednesday
8,117578221.87034313
2,4, 1, 4, 0,15,40.00,50.00,Wednesday