Program Version,EnergyPlus, Version 23.2.0-7636e6b3e9, YMD=2025.01.19 15:46
1,5,Environment Title[],Latitude[deg],Longitude[deg],Time Zone[],Elevation[m]
2,8,Day of Simulation[],Month[],Day of Month[],DST Indicator[1=yes 0=no],Hour[],StartMinute[],EndMinute[],DayType
3,5,Cumulative Day of Simulation[],Month[],Day of Month[],DST Indicator[1=yes 0=no],DayType  ! When Daily Report Variables Requested
4,2,Cumulative Days of Simulation[],Month[]  ! When Monthly Report Variables Requested
5,1,Cumulative Days of Simulation[] ! When Run Period Report Variables Requested
6,1,Calendar Year of Simulation[] ! When Annual Report Variables Requested
8,1,Electricity:Facility [J] !TimeStep
End of Data Dictionary
1,RUN PERIOD 1,  46.80, -71.38,  -5.00,  74.40
2,1, 1, 1, 0, 1, 0.00,10.00,Sunday
8,30100158.01343949
2,1, 1, 1, 0, 1,10.00,20.00,Sunday
8,28424344.16654654
2,1, 1, 1, 0, 1,20.00,30.00,Sunday
8,26178823.38007191
2,1, 1, 1, 0, 1,30.00,40.00,Sunday
8,24116352.98515318
2,1, 1, 1, 0, 1,40.00,50.00,Sunday
8,21109022.605448328
2,1, 1, 1, 0, 1,50.00,60.00,Sunday
8,17982496.138902932
2,1, 1, 1, 0, 2, 0.00,10.00,Sunday
8,18376315.53866764
2,1, 1, 1, 0, 2,10.00,20.00,Sunday
8,18168965.112931337
2,1, 1, 1, 0, 2,20.00,30.00,Sunday
8,17368388.82033132
2,1, 1, 1, 0, 2,30.00,40.00,Sunday
8,16396797.413900454
2,1, 1, 1, 0, 2,40.00,50.00,Sunday
8,15630343.276957044
2,1, 1, 1, 0, 2,50.00,60.00,Sunday
8,15103822.664566724
2,1, 1, 1, 0, 3, 0.00,10.00,Sunday
8,15705018.768314252
2,1, 1, 1, 0, 3,10.00,20.00,Sunday
8,15546959.96650211
2,1, 1, 1, 0, 3,20.00,30.00,Sunday
8,15616064.85834797
2,1, 1, 1, 0, 3,30.00,40.00,Sunday
8,15881030.773885315
2,1, 1, 1, 0, 3,40.00,50.00,Sunday
8,16062681.263205351
2,1, 1, 1, 0, 3,50.00,60.00,Sunday
8,15746982.665122705
2,1, 1, 1, 0, 4, 0.00,10.00,Sunday
8,15986689.851127867
2,1, 1, 1, 0, 4,10.00,20.00,Sunday
8,16218433.459940143
2,1, 1, 1, 0, 4,20.00,30.00,Sunday
8,16451588.861430027
2,1, 1, 1, 0, 4,30.00,40.00,Sunday
8,16088589.795877436
2,1, 1, 1, 0, 4,40.00,50.00,Sunday
8,16101457.023641838
2,1, 1, 1, 0, 4,50.00,60.00,Sunday
8,16260000.492458979
2,1, 1, 1, 0, 5, 0.00,10.00,Sunday
8,17910287.610948596
2,1, 1, 1, 0, 5,10.00,20.00,Sunday
8,18813956.508381784
2,1, 1, 1, 0, 5,20.00,30.00,Sunday
8,20114758.331117075
2,1, 1, 1, 0, 5,30.00,40.00,Sunday
8,21547793.653162025
2,1, 1, 1, 0, 5,40.00,50.00,Sunday
8,23138597.66965837
2,1, 1, 1, 0, 5,50.00,60.00,Sunday
8,24038459.55674276
2,1, 1, 1, 0, 6, 0.00,10.00,Sunday
8,22740961.0667658
2,1, 1, 1, 0, 6,10.00,20.00,Sunday
8,21568959.58087115
2,1, 1, 1, 0, 6,20.00,30.00,Sunday
8,20590484.758693893
2,1, 1, 1, 0, 6,30.00,40.00,Sunday
8,18864116.986920863
2,1, 1, 1, 0, 6,40.00,50.00,Sunday
8,17575707.572312567
2,1, 1, 1, 0, 6,50.00,60.00,Sunday
8,16402317.981762297
2,1, 1, 1, 0, 7, 0.00,10.00,Sunday
8,17606386.38531659
2,1, 1, 1, 0, 7,10.00,20.00,Sunday
8,18000950.262114085
2,1, 1, 1, 0, 7,20.00,30.00,Sunday
8,18836413.014431983
2,1, 1, 1, 0, 7,30.00,40.00,Sunday
8,19793815.11828993
2,1, 1, 1, 0, 7,40.00,50.00,Sunday
8,20976016.63468984
2,1, 1, 1, 0, 7,50.00,60.00,Sunday
8,21364121.810065366
2,1, 1, 1, 0, 8, 0.00,10.00,Sunday
8,20531661.17330779
2,1, 1, 1, 0, 8,10.00,20.00,Sunday
8,19794959.588041123
2,1, 1, 1, 0, 8,20.00,30.00,Sunday
8,19297820.873735752
2,1, 1, 1, 0, 8,30.00,40.00,Sunday
8,17755064.83917952
2,1, 1, 1, 0, 8,40.00,50.00,Sunday
8,16520562.789175913
2,1, 1, 1, 0, 8,50.00,60.00,Sunday
8,15268554.307130069
2,1, 1, 1, 0, 9, 0.00,10.00,Sunday
8,14530932.034643965
2,1, 1, 1, 0, 9,10.00,20.00,Sunday
8,13354739.747102838
2,1, 1, 1, 0, 9,20.00,30.00,Sunday
8,12714457.388503762
2,1, 1, 1, 0, 9,30.00,40.00,Sunday
8,12327810.668646753
2,1, 1, 1, 0, 9,40.00,50.00,Sunday
8,12274321.38682546
2,1, 1, 1, 0, 9,50.00,60.00,Sunday
8,11429531.491991391
2,1, 1, 1, 0,10, 0.00,10.00,Sunday
8,54519123.207305126
2,1, 1, 1, 0,10,10.00,20.00,Sunday
8,24420260.44217204
2,1, 1, 1, 0,10,20.00,30.00,Sunday
8,30258096.67063279
2,1, 1, 1, 0,10,30.00,40.00,Sunday
8,23649361.816196565
2,1, 1, 1, 0,10,40.00,50.00,Sunday
8,23267823.95059377
2,1, 1, 1, 0,10,50.00,60.00,Sunday
8,24726536.904024232
2,1, 1, 1, 0,11, 0.00,10.00,Sunday
8,64129380.12053974
2,1, 1, 1, 0,11,10.00,20.00,Sunday
8,49541127.180713736
2,1, 1, 1, 0,11,20.00,30.00,Sunday
8,31119563.451312464
2,1, 1, 1, 0,11,30.00,40.00,Sunday
8,38303653.42967512
2,1, 1, 1, 0,11,40.00,50.00,Sunday
8,34105277.92709463
2,1, 1, 1, 0,11,50.00,60.00,Sunday
8,34087157.27550334
2,1, 1, 1, 0,12, 0.00,10.00,Sunday
8,88687609.23635246
2,1, 1, 1, 0,12,10.00,20.00,Sunday
8,86418456.38650408
2,1, 1, 1, 0,12,20.00,30.00,Sunday
8,85704557.94639291
2,1, 1, 1, 0,12,30.00,40.00,Sunday
8,84212557.59172095
2,1, 1, 1, 0,12,40.00,50.00,Sunday
8,84462268.45595768
2,1, 1, 1, 0,12,50.00,60.00,Sunday
8,84132994.26850362
2,1, 1, 1, 0,13, 0.00,10.00,Sunday
8,83134522.30434829
2,1, 1, 1, 0,13,10.00,20.00,Sunday
8,84286525.6331366
2,1, 1, 1, 0,13,20.00,30.00,Sunday
8,85672540.95173949
2,1, 1, 1, 0,13,30.00,40.00,Sunday
8,86769257.7268906
2,1, 1, 1, 0,13,40.00,50.00,Sunday
8,87940191.69147629
2,1, 1, 1, 0,13,50.00,60.00,Sunday
8,88959900.4976671
2,1, 1, 1, 0,14, 0.00,10.00,Sunday
8,88737979.56140266
2,1, 1, 1, 0,14,10.00,20.00,Sunday
8,87907490.43116367
2,1, 1, 1, 0,14,20.00,30.00,Sunday
8,87605624.00495856
2,1, 1, 1, 0,14,30.00,40.00,Sunday
8,88009095.79128666
2,1, 1, 1, 0,14,40.00,50.00,Sunday
8,87029617.34961964
2,1, 1, 1, 0,14,50.00,60.00,Sunday
8,86805304.44528994
2,1, 1, 1, 0,15, 0.00,10.00,Sunday
8,87789389.62185669
2,1, 1, 1, 0,15,10.00,20.00,Sunday
8,88162692.78098701
2,1, 1, 1, 0,15,20.00,30.00,Sunday
8,89332992.39353931
2,1, 1, 1, 0,15,30.00,40.00,Sunday
8,91054891.66020218
2,1, 1, 1, 0,15,40.00,50.00,Sunday
8,91825622.81013332
2,1, 1, 1, 0,15,50.00,60.00,Sunday
8,93381287.11324483
2,1, 1, 1, 0,16, 0.00,10.00,Sunday
8,93790284.03151308
2,1, 1, 1, 0,16,10.00,20.00,Sunday
8,94340093.20466694
2,1, 1, 1, 0,16,20.00,30.00,Sunday
8,94968134.4311466
2,1, 1, 1, 0,16,30.00,40.00,Sunday
8,95703216.91657072
2,1, 1, 1, 0,16,40.00,50.00,Sunday
8,96424686.16356423
2,1, 1, 1, 0,16,50.00,60.00,Sunday
8,97284517.50045687
2,1, 1, 1, 0,17, 0.00,10.00,Sunday
8,100385880.63750646
2,1, 1, 1, 0,17,10.00,20.00,Sunday
8,103109443.80167706
2,1, 1, 1, 0,17,20.00,30.00,Sunday
8,105541481.75397357
2,1, 1, 1, 0,17,30.00,40.00,Sunday
8,108074669.55958271
2,1, 1, 1, 0,17,40.00,50.00,Sunday
8,110418215.27295834
2,1, 1, 1, 0,17,50.00,60.00,Sunday
8,112679578.26854652
2,1, 1, 1, 0,18, 0.00,10.00,Sunday
8,112348096.77640758
2,1, 1, 1, 0,18,10.00,20.00,Sunday
8,111612578.00813842
2,1, 1, 1, 0,18,20.00,30.00,Sunday
8,110308202.78029639
2,1, 1, 1, 0,18,30.00,40.00,Sunday
8,109531630.05257806
2,1, 1, 1, 0,18,40.00,50.00,Sunday
8,108934102.67422847
2,1, 1, 1, 0,18,50.00,60.00,Sunday
8,108012919.52819283
2,1, 1, 1, 0,19, 0.00,10.00,Sunday
8,104730177.38701093
2,1, 1, 1, 0,19,10.00,20.00,Sunday
8,105001690.72614329
2,1, 1, 1, 0,19,20.00,30.00,Sunday
8,105415870.74000609
2,1, 1, 1, 0,19,30.00,40.00,Sunday
8,104805111.34007639
2,1, 1, 1, 0,19,40.00,50.00,Sunday
8,105237072.40443593
2,1, 1, 1, 0,19,50.00,60.00,Sunday
8,105194208.01839076
2,1, 1, 1, 0,20, 0.00,10.00,Sunday
8,9171106.092569748
2,1, 1, 1, 0,20,10.00,20.00,Sunday
8,12146146.173810015
2,1, 1, 1, 0,20,20.00,30.00,Sunday
8,12758123.170258531
2,1, 1, 1, 0,20,30.00,40.00,Sunday
8,13114668.483804394
2,1, 1, 1, 0,20,40.00,50.00,Sunday
8,21595494.45781951
2,1, 1, 1, 0,20,50.00,60.00,Sunday
8,29938534.37076831
2,1, 1, 1, 0,21, 0.00,10.00,Sunday
8,24834870.01270405
2,1, 1, 1, 0,21,10.00,20.00,Sunday
8,29734263.100427736
2,1, 1, 1, 0,21,20.00,30.00,Sunday
8,30832213.122962814
2,1, 1, 1, 0,21,30.00,40.00,Sunday
8,32293431.3235574
2,1, 1, 1, 0,21,40.00,50.00,Sunday
8,33720732.09009953
2,1, 1, 1, 0,21,50.00,60.00,Sunday
8,35626512.16691934
2,1, 1, 1, 0,22, 0.00,10.00,Sunday
8,36853458.80557373
2,1, 1, 1, 0,22,10.00,20.00,Sunday
8,36916043.36820655
2,1, 1, 1, 0,22,20.00,30.00,Sunday
8,36500575.88854445
2,1, 1, 1, 0,22,30.00,40.00,Sunday
8,36598993.465755284
2,1, 1, 1, 0,22,40.00,50.00,Sunday
8,35510197.0932636
2,1, 1, 1, 0,22,50.00,60.00,Sunday
8,34932275.48364123
2,1, 1, 1, 0,23, 0.00,10.00,Sunday
8,36725180.43347674
2,1, 1, 1, 0,23,10.00,20.00,Sunday
8,38014162.66252892
2,1, 1, 1, 0,23,20.00,30.00,Sunday
8,37970851.574854605
2,1, 1, 1, 0,23,30.00,40.00,Sunday
8,38455545.350811966
2,1, 1, 1, 0,23,40.00,50.00,Sunday
8,38904047.85321198
2,1, 1, 1, 0,23,50.00,60.00,Sunday
8,39886981.82918411
2,1, 1, 1, 0,24, 0.00,10.00,Sunday
8,39142389.823591396
2,1, 1, 1, 0,24,10.00,20.00,Sunday
8,38463701.72043008
2,1, 1, 1, 0,24,20.00,30.00,Sunday
8,37701570.41145337
2,1, 1, 1, 0,24,30.00,40.00,Sunday
8,37493201.18753103
2,1, 1, 1, 0,24,40.00,50.00,Sunday
8,36150304.5184114
2,1, 1, 1, 0,24,50.00,60.00,Sunday
8,35364960.42548079
2,2, 1, 2, 0, 1, 0.00,10.00,Monday
8,36582124.33466129
2,2, 1, 2, 0, 1,10.00,20.00,Monday
8,38149118.97626266
2,2, 1, 2, 0, 1,20.00,30.00,Monday
8,38546063.829847075
2,2, 1, 2, 0, 1,30.00,40.00,Monday
8,39493051.5465452
2,2, 1, 2, 0, 1,40.00,50.00,Monday
8,40427831.297872424
2,2, 1, 2, 0, 1,50.00,60.00,Monday
8,41915523.91029761
2,2, 1, 2, 0, 2, 0.00,10.00,Monday
8,38857603.32781898
2,2, 1, 2, 0, 2,10.00,20.00,Monday
8,36298807.303629875
2,2, 1, 2, 0, 2,20.00,30.00,Monday
8,33734663.27786384
2,2, 1, 2, 0, 2,30.00,40.00,Monday
8,31738939.77576547
2,2, 1, 2, 0, 2,40.00,50.00,Monday
8,28617401.394355953
2,2, 1, 2, 0, 2,50.00,60.00,Monday
8,26064213.807249703
2,2, 1, 2, 0, 3, 0.00,10.00,Monday
8,26106365.09810484
2,2, 1, 2, 0, 3,10.00,20.00,Monday
8,26671556.671724703
2,2, 1, 2, 0, 3,20.00,30.00,Monday
8,26097875.104113482
2,2, 1, 2, 0, 3,30.00,40.00,Monday
8,26086878.45799029
2,2, 1, 2, 0, 3,40.00,50.00,Monday
8,26075088.194908537
2,2, 1, 2, 0, 3,50.00,60.00,Monday
8,26521602.9635521
2,2, 1, 2, 0, 4, 0.00,10.00,Monday
8,24927292.04191755
2,2, 1, 2, 0, 4,10.00,20.00,Monday
8,23574764.0751809
2,2, 1, 2, 0, 4,20.00,30.00,Monday
8,22328888.742346637
2,2, 1, 2, 0, 4,30.00,40.00,Monday
8,21453260.19781073
2,2, 1, 2, 0, 4,40.00,50.00,Monday
8,20046339.650511023
2,2, 1, 2, 0, 4,50.00,60.00,Monday
8,18632217.944684327
2,2, 1, 2, 0, 5, 0.00,10.00,Monday
8,19772639.12270746
2,2, 1, 2, 0, 5,10.00,20.00,Monday
8,21156013.112196766
2,2, 1, 2, 0, 5,20.00,30.00,Monday
8,22178881.503295977
2,2, 1, 2, 0, 5,30.00,40.00,Monday
8,22929922.408532202
2,2, 1, 2, 0, 5,40.00,50.00,Monday
8,23914116.867578734
2,2, 1, 2, 0, 5,50.00,60.00,Monday
8,25107621.89806832
2,2, 1, 2, 0, 6, 0.00,10.00,Monday
8,27003611.918359663
2,2, 1, 2, 0, 6,10.00,20.00,Monday
8,28526162.757519983
2,2, 1, 2, 0, 6,20.00,30.00,Monday
8,30340412.157987
2,2, 1, 2, 0, 6,30.00,40.00,Monday
8,32326239.257999174
2,2, 1, 2, 0, 6,40.00,50.00,Monday
8,34224495.97350277
2,2, 1, 2, 0, 6,50.00,60.00,Monday
8,35588038.80027259
2,2, 1, 2, 0, 7, 0.00,10.00,Monday
8,34094661.442564175
2,2, 1, 2, 0, 7,10.00,20.00,Monday
8,32861670.30368161
2,2, 1, 2, 0, 7,20.00,30.00,Monday
8,31671444.94336957
2,2, 1, 2, 0, 7,30.00,40.00,Monday
8,29910818.11740656
2,2, 1, 2, 0, 7,40.00,50.00,Monday
8,28537672.106734775
2,2, 1, 2, 0, 7,50.00,60.00,Monday
8,27331790.476983186
2,2, 1, 2, 0, 8, 0.00,10.00,Monday
8,83280672.0237768
2,2, 1, 2, 0, 8,10.00,20.00,Monday
8,21505802.317746095
2,2, 1, 2, 0, 8,20.00,30.00,Monday
8,50622601.683919035
2,2, 1, 2, 0, 8,30.00,40.00,Monday
8,52165262.80548081
2,2, 1, 2, 0, 8,40.00,50.00,Monday
8,49466413.56948595
2,2, 1, 2, 0, 8,50.00,60.00,Monday
8,49761155.37676177
2,2, 1, 2, 0, 9, 0.00,10.00,Monday
8,96916045.93548742
2,2, 1, 2, 0, 9,10.00,20.00,Monday
8,81187511.57242791
2,2, 1, 2, 0, 9,20.00,30.00,Monday
8,67089901.801919125
2,2, 1, 2, 0, 9,30.00,40.00,Monday
8,66148473.304572314
2,2, 1, 2, 0, 9,40.00,50.00,Monday
8,64566527.698369205
2,2, 1, 2, 0, 9,50.00,60.00,Monday
8,64264453.361166395
2,2, 1, 2, 0,10, 0.00,10.00,Monday
8,108092096.0565602
2,2, 1, 2, 0,10,10.00,20.00,Monday
8,107146182.5874842
2,2, 1, 2, 0,10,20.00,30.00,Monday
8,107379983.35509837
2,2, 1, 2, 0,10,30.00,40.00,Monday
8,108030639.10883728
2,2, 1, 2, 0,10,40.00,50.00,Monday
8,108679402.11189288
2,2, 1, 2, 0,10,50.00,60.00,Monday
8,109404915.6434513
2,2, 1, 2, 0,11, 0.00,10.00,Monday
8,107031343.48967879
2,2, 1, 2, 0,11,10.00,20.00,Monday
8,107493912.05639592
2,2, 1, 2, 0,11,20.00,30.00,Monday
8,108309747.49808192
2,2, 1, 2, 0,11,30.00,40.00,Monday
8,109221866.40672596
2,2, 1, 2, 0,11,40.00,50.00,Monday
8,110133485.17661576
2,2, 1, 2, 0,11,50.00,60.00,Monday
8,111162335.0033062
2,2, 1, 2, 0,12, 0.00,10.00,Monday
8,109959239.98740284
2,2, 1, 2, 0,12,10.00,20.00,Monday
8,109461218.75832547
2,2, 1, 2, 0,12,20.00,30.00,Monday
8,109101927.68570319
2,2, 1, 2, 0,12,30.00,40.00,Monday
8,108740588.38906935
2,2, 1, 2, 0,12,40.00,50.00,Monday
8,108389147.32524544
2,2, 1, 2, 0,12,50.00,60.00,Monday
8,108081098.70762871
2,2, 1, 2, 0,13, 0.00,10.00,Monday
8,108936000.6629037
2,2, 1, 2, 0,13,10.00,20.00,Monday
8,109648032.05028763
2,2, 1, 2, 0,13,20.00,30.00,Monday
8,110521573.4619336
2,2, 1, 2, 0,13,30.00,40.00,Monday
8,111388234.96119031
2,2, 1, 2, 0,13,40.00,50.00,Monday
8,112258668.62484242
2,2, 1, 2, 0,13,50.00,60.00,Monday
8,113138668.03156297
2,2, 1, 2, 0,14, 0.00,10.00,Monday
8,112258029.15562063
2,2, 1, 2, 0,14,10.00,20.00,Monday
8,111546596.63150194
2,2, 1, 2, 0,14,20.00,30.00,Monday
8,110884937.00492561
2,2, 1, 2, 0,14,30.00,40.00,Monday
8,110292149.97360308
2,2, 1, 2, 0,14,40.00,50.00,Monday
8,109729675.5608037
2,2, 1, 2, 0,14,50.00,60.00,Monday
8,109183715.49579987
2,2, 1, 2, 0,15, 0.00,10.00,Monday
8,112456718.84572639
2,2, 1, 2, 0,15,10.00,20.00,Monday
8,115829646.24440515
2,2, 1, 2, 0,15,20.00,30.00,Monday
8,119266200.92847395
2,2, 1, 2, 0,15,30.00,40.00,Monday
8,122742488.39765783
2,2, 1, 2, 0,15,40.00,50.00,Monday
8,126269377.43371151
2,2, 1, 2, 0,15,50.00,60.00,Monday
8,129848785.35808212
2,2, 1, 2, 0,16, 0.00,10.00,Monday
8,130333618.14872834
2,2, 1, 2, 0,16,10.00,20.00,Monday
8,130782927.29125576
2,2, 1, 2, 0,16,20.00,30.00,Monday
8,131205595.48347168
2,2, 1, 2, 0,16,30.00,40.00,Monday
8,131630746.64456499
2,2, 1, 2, 0,16,40.00,50.00,Monday
8,132054170.08896755
2,2, 1, 2, 0,16,50.00,60.00,Monday
8,132471291.7158863
2,2, 1, 2, 0,17, 0.00,10.00,Monday
8,131956930.0764167
2,2, 1, 2, 0,17,10.00,20.00,Monday
8,131491996.2884181
2,2, 1, 2, 0,17,20.00,30.00,Monday
8,130907668.16031598
2,2, 1, 2, 0,17,30.00,40.00,Monday
8,130271381.9932217
2,2, 1, 2, 0,17,40.00,50.00,Monday
8,129583374.36229543
2,2, 1, 2, 0,17,50.00,60.00,Monday
8,128274602.90324101
2,2, 1, 2, 0,18, 0.00,10.00,Monday
8,130854296.44137505
2,2, 1, 2, 0,18,10.00,20.00,Monday
8,133528750.40303086
2,2, 1, 2, 0,18,20.00,30.00,Monday
8,136086460.01337653
2,2, 1, 2, 0,18,30.00,40.00,Monday
8,138638227.28155652
2,2, 1, 2, 0,18,40.00,50.00,Monday
8,141204743.18317917
2,2, 1, 2, 0,18,50.00,60.00,Monday
8,143788886.09412682
2,2, 1, 2, 0,19, 0.00,10.00,Monday
8,141693326.2801427
2,2, 1, 2, 0,19,10.00,20.00,Monday
8,139668851.67010105
2,2, 1, 2, 0,19,20.00,30.00,Monday
8,137166585.49844468
2,2, 1, 2, 0,19,30.00,40.00,Monday
8,135280697.39763185
2,2, 1, 2, 0,19,40.00,50.00,Monday
8,133295321.59957038
2,2, 1, 2, 0,19,50.00,60.00,Monday
8,131062912.73997635
2,2, 1, 2, 0,20, 0.00,10.00,Monday
8,110608751.89047721
2,2, 1, 2, 0,20,10.00,20.00,Monday
8,118939912.93570374
2,2, 1, 2, 0,20,20.00,30.00,Monday
8,127549009.7381431
2,2, 1, 2, 0,20,30.00,40.00,Monday
8,123121392.82554027
2,2, 1, 2, 0,20,40.00,50.00,Monday
8,127900978.9742328
2,2, 1, 2, 0,20,50.00,60.00,Monday
8,130303306.62194023
2,2, 1, 2, 0,21, 0.00,10.00,Monday
8,131127968.38543577
2,2, 1, 2, 0,21,10.00,20.00,Monday
8,133488419.08562201
2,2, 1, 2, 0,21,20.00,30.00,Monday
8,134552355.11519116
2,2, 1, 2, 0,21,30.00,40.00,Monday
8,135633813.84670547
2,2, 1, 2, 0,21,40.00,50.00,Monday
8,137232099.08963063
2,2, 1, 2, 0,21,50.00,60.00,Monday
8,137810008.8742874
2,2, 1, 2, 0,22, 0.00,10.00,Monday
8,15351047.214122318
2,2, 1, 2, 0,22,10.00,20.00,Monday
8,17810105.0940215
2,2, 1, 2, 0,22,20.00,30.00,Monday
8,20125005.705860913
2,2, 1, 2, 0,22,30.00,40.00,Monday
8,28952955.640696183
2,2, 1, 2, 0,22,40.00,50.00,Monday
8,33376351.286950067
2,2, 1, 2, 0,22,50.00,60.00,Monday
8,31702777.389330022
2,2, 1, 2, 0,23, 0.00,10.00,Monday
8,35221221.22085584
2,2, 1, 2, 0,23,10.00,20.00,Monday
8,39850675.42163092
2,2, 1, 2, 0,23,20.00,30.00,Monday
8,42278341.92647982
2,2, 1, 2, 0,23,30.00,40.00,Monday
8,43667770.08328729
2,2, 1, 2, 0,23,40.00,50.00,Monday
8,45509876.06280476
2,2, 1, 2, 0,23,50.00,60.00,Monday
8,47273619.47224445
2,2, 1, 2, 0,24, 0.00,10.00,Monday
8,51820833.83593234
2,2, 1, 2, 0,24,10.00,20.00,Monday
8,53356700.28540286
2,2, 1, 2, 0,24,20.00,30.00,Monday
8,55028864.59665582
2,2, 1, 2, 0,24,30.00,40.00,Monday
8,56659572.81397576
2,2, 1, 2, 0,24,40.00,50.00,Monday
8,58787908.70766659
2,2, 1, 2, 0,24,50.00,60.00,Monday
8,59771490.8795022
2,3, 1, 3, 0, 1, 0.00,10.00,Tuesday
8,63180653.12481273
2,3, 1, 3, 0, 1,10.00,20.00,Tuesday
8,65579185.53255989
2,3, 1, 3, 0, 1,20.00,30.00,Tuesday
8,68376675.36221102
2,3, 1, 3, 0, 1,30.00,40.00,Tuesday
8,70077296.37684453
2,3, 1, 3, 0, 1,40.00,50.00,Tuesday
8,72334545.48332375
2,3, 1, 3, 0, 1,50.00,60.00,Tuesday
8,74643472.77147357
2,3, 1, 3, 0, 2, 0.00,10.00,Tuesday
8,72559079.1338679
2,3, 1, 3, 0, 2,10.00,20.00,Tuesday
8,68897555.30807745
2,3, 1, 3, 0, 2,20.00,30.00,Tuesday
8,65599548.315828465
2,3, 1, 3, 0, 2,30.00,40.00,Tuesday
8,62312225.92126145
2,3, 1, 3, 0, 2,40.00,50.00,Tuesday
8,59313263.63446574
2,3, 1, 3, 0, 2,50.00,60.00,Tuesday
8,55357282.58299494
2,3, 1, 3, 0, 3, 0.00,10.00,Tuesday
8,56154129.97677188
2,3, 1, 3, 0, 3,10.00,20.00,Tuesday
8,56649031.639200315
2,3, 1, 3, 0, 3,20.00,30.00,Tuesday
8,57359414.16767038
2,3, 1, 3, 0, 3,30.00,40.00,Tuesday
8,57218081.36887091
2,3, 1, 3, 0, 3,40.00,50.00,Tuesday
8,57530452.623616904
2,3, 1, 3, 0, 3,50.00,60.00,Tuesday
8,57939551.03451898
2,3, 1, 3, 0, 4, 0.00,10.00,Tuesday
8,60222115.2747881
2,3, 1, 3, 0, 4,10.00,20.00,Tuesday
8,61547714.53756346
2,3, 1, 3, 0, 4,20.00,30.00,Tuesday
8,63322149.61833032
2,3, 1, 3, 0, 4,30.00,40.00,Tuesday
8,65236659.95258799
2,3, 1, 3, 0, 4,40.00,50.00,Tuesday
8,67383442.07710327
2,3, 1, 3, 0, 4,50.00,60.00,Tuesday
8,68789323.85717542
2,3, 1, 3, 0, 5, 0.00,10.00,Tuesday
8,69869130.9215231
2,3, 1, 3, 0, 5,10.00,20.00,Tuesday
8,70892008.45010091
2,3, 1, 3, 0, 5,20.00,30.00,Tuesday
8,72076270.29526643
2,3, 1, 3, 0, 5,30.00,40.00,Tuesday
8,72517884.10914806
2,3, 1, 3, 0, 5,40.00,50.00,Tuesday
8,73392409.59207623
2,3, 1, 3, 0, 5,50.00,60.00,Tuesday
8,74396455.7781815
2,3, 1, 3, 0, 6, 0.00,10.00,Tuesday
8,74546692.56724736
2,3, 1, 3, 0, 6,10.00,20.00,Tuesday
8,73817981.67360264
2,3, 1, 3, 0, 6,20.00,30.00,Tuesday
8,73554079.44104853
2,3, 1, 3, 0, 6,30.00,40.00,Tuesday
8,73346285.03624968
2,3, 1, 3, 0, 6,40.00,50.00,Tuesday
8,73291994.3487146
2,3, 1, 3, 0, 6,50.00,60.00,Tuesday
8,72512164.27058938
2,3, 1, 3, 0, 7, 0.00,10.00,Tuesday
8,71977201.08498707
2,3, 1, 3, 0, 7,10.00,20.00,Tuesday
8,71475927.17880043
2,3, 1, 3, 0, 7,20.00,30.00,Tuesday
8,71109540.2850437
2,3, 1, 3, 0, 7,30.00,40.00,Tuesday
8,70029609.30174498
2,3, 1, 3, 0, 7,40.00,50.00,Tuesday
8,69366488.00783925
2,3, 1, 3, 0, 7,50.00,60.00,Tuesday
8,68835387.49041554
2,3, 1, 3, 0, 8, 0.00,10.00,Tuesday
8,129399966.15802297
2,3, 1, 3, 0, 8,10.00,20.00,Tuesday
8,95445878.56142643
2,3, 1, 3, 0, 8,20.00,30.00,Tuesday
8,98654711.50375925
2,3, 1, 3, 0, 8,30.00,40.00,Tuesday
8,93094894.27893953
2,3, 1, 3, 0, 8,40.00,50.00,Tuesday
8,91258483.66265044
2,3, 1, 3, 0, 8,50.00,60.00,Tuesday
8,89542842.25351234
2,3, 1, 3, 0, 9, 0.00,10.00,Tuesday
8,122204452.7764224
2,3, 1, 3, 0, 9,10.00,20.00,Tuesday
8,127529609.31626587
2,3, 1, 3, 0, 9,20.00,30.00,Tuesday
8,91153272.06361337
2,3, 1, 3, 0, 9,30.00,40.00,Tuesday
8,103224052.50080086
2,3, 1, 3, 0, 9,40.00,50.00,Tuesday
8,98194008.93836194
2,3, 1, 3, 0, 9,50.00,60.00,Tuesday
8,96559517.9632401
2,3, 1, 3, 0,10, 0.00,10.00,Tuesday
8,173261767.30802044
2,3, 1, 3, 0,10,10.00,20.00,Tuesday
8,168125149.97227845
2,3, 1, 3, 0,10,20.00,30.00,Tuesday
8,164388121.2334011
2,3, 1, 3, 0,10,30.00,40.00,Tuesday
8,161133958.18628442
2,3, 1, 3, 0,10,40.00,50.00,Tuesday
8,158019220.45127225
2,3, 1, 3, 0,10,50.00,60.00,Tuesday
8,155077820.2868093
2,3, 1, 3, 0,11, 0.00,10.00,Tuesday
8,150172530.21606758
2,3, 1, 3, 0,11,10.00,20.00,Tuesday
8,150729409.9760462
2,3, 1, 3, 0,11,20.00,30.00,Tuesday
8,151841752.75529277
2,3, 1, 3, 0,11,30.00,40.00,Tuesday
8,153153822.79104504
2,3, 1, 3, 0,11,40.00,50.00,Tuesday
8,154558600.05049893
2,3, 1, 3, 0,11,50.00,60.00,Tuesday
8,156134766.6375422
2,3, 1, 3, 0,12, 0.00,10.00,Tuesday
8,152141403.7406847
2,3, 1, 3, 0,12,10.00,20.00,Tuesday
8,151072005.9578952
2,3, 1, 3, 0,12,20.00,30.00,Tuesday
8,150254846.98845053
2,3, 1, 3, 0,12,30.00,40.00,Tuesday
8,149531028.9864558
2,3, 1, 3, 0,12,40.00,50.00,Tuesday
8,148887323.13749564
2,3, 1, 3, 0,12,50.00,60.00,Tuesday
8,148415624.54796395
2,3, 1, 3, 0,13, 0.00,10.00,Tuesday
8,147956346.56176302
2,3, 1, 3, 0,13,10.00,20.00,Tuesday
8,148029348.5929887
2,3, 1, 3, 0,13,20.00,30.00,Tuesday
8,148398448.7032918
2,3, 1, 3, 0,13,30.00,40.00,Tuesday
8,148931812.3371471
2,3, 1, 3, 0,13,40.00,50.00,Tuesday
8,149511832.94829476
2,3, 1, 3, 0,13,50.00,60.00,Tuesday
8,150159314.53930813
2,3, 1, 3, 0,14, 0.00,10.00,Tuesday
8,149008229.38577193
2,3, 1, 3, 0,14,10.00,20.00,Tuesday
8,147180195.67709154
2,3, 1, 3, 0,14,20.00,30.00,Tuesday
8,145357425.4195833
2,3, 1, 3, 0,14,30.00,40.00,Tuesday
8,143357549.2553002
2,3, 1, 3, 0,14,40.00,50.00,Tuesday
8,141289906.75329447
2,3, 1, 3, 0,14,50.00,60.00,Tuesday
8,139186941.3702698
2,3, 1, 3, 0,15, 0.00,10.00,Tuesday
8,141568722.06666714
2,3, 1, 3, 0,15,10.00,20.00,Tuesday
8,142895320.45185336
2,3, 1, 3, 0,15,20.00,30.00,Tuesday
8,144184775.97564614
2,3, 1, 3, 0,15,30.00,40.00,Tuesday
8,145562417.01141757
2,3, 1, 3, 0,15,40.00,50.00,Tuesday
8,146978018.3424816
2,3, 1, 3, 0,15,50.00,60.00,Tuesday
8,148421546.89648193
2,3, 1, 3, 0,16, 0.00,10.00,Tuesday
8,151632798.22248685
2,3, 1, 3, 0,16,10.00,20.00,Tuesday
8,153496899.55218616
2,3, 1, 3, 0,16,20.00,30.00,Tuesday
8,155369127.17980814
2,3, 1, 3, 0,16,30.00,40.00,Tuesday
8,157500705.30023456
2,3, 1, 3, 0,16,40.00,50.00,Tuesday
8,159736949.09373847
2,3, 1, 3, 0,16,50.00,60.00,Tuesday
8,161994479.58202675
2,3, 1, 3, 0,17, 0.00,10.00,Tuesday
8,165664577.13388753
2,3, 1, 3, 0,17,10.00,20.00,Tuesday
8,167624351.19061396
2,3, 1, 3, 0,17,20.00,30.00,Tuesday
8,168745930.69183978
2,3, 1, 3, 0,17,30.00,40.00,Tuesday
8,169779686.37537533
2,3, 1, 3, 0,17,40.00,50.00,Tuesday
8,170685021.7067749
2,3, 1, 3, 0,17,50.00,60.00,Tuesday
8,170915612.56673536
2,3, 1, 3, 0,18, 0.00,10.00,Tuesday
8,172019719.11955464
2,3, 1, 3, 0,18,10.00,20.00,Tuesday
8,172217271.32753533
2,3, 1, 3, 0,18,20.00,30.00,Tuesday
8,172017555.1907202
2,3, 1, 3, 0,18,30.00,40.00,Tuesday
8,171771957.41621518
2,3, 1, 3, 0,18,40.00,50.00,Tuesday
8,171462293.32146284
2,3, 1, 3, 0,18,50.00,60.00,Tuesday
8,171099359.99327618
2,3, 1, 3, 0,19, 0.00,10.00,Tuesday
8,170747522.70694506
2,3, 1, 3, 0,19,10.00,20.00,Tuesday
8,169791344.6210425
2,3, 1, 3, 0,19,20.00,30.00,Tuesday
8,168417243.48986778
2,3, 1, 3, 0,19,30.00,40.00,Tuesday
8,167666797.63030732
2,3, 1, 3, 0,19,40.00,50.00,Tuesday
8,166663933.53336975
2,3, 1, 3, 0,19,50.00,60.00,Tuesday
8,165496534.19531566
2,3, 1, 3, 0,20, 0.00,10.00,Tuesday
8,143480258.76837495
2,3, 1, 3, 0,20,10.00,20.00,Tuesday
8,155517958.4261288
2,3, 1, 3, 0,20,20.00,30.00,Tuesday
8,165334329.67246607
2,3, 1, 3, 0,20,30.00,40.00,Tuesday
8,162828293.52031815
2,3, 1, 3, 0,20,40.00,50.00,Tuesday
8,169589284.0282785
2,3, 1, 3, 0,20,50.00,60.00,Tuesday
8,173800318.60548097
2,3, 1, 3, 0,21, 0.00,10.00,Tuesday
8,172344306.2735162
2,3, 1, 3, 0,21,10.00,20.00,Tuesday
8,171961467.5970571
2,3, 1, 3, 0,21,20.00,30.00,Tuesday
8,170211132.11250904
2,3, 1, 3, 0,21,30.00,40.00,Tuesday
8,168736211.57644385
2,3, 1, 3, 0,21,40.00,50.00,Tuesday
8,167474916.3150139
2,3, 1, 3, 0,21,50.00,60.00,Tuesday
8,165174007.91753715
2,3, 1, 3, 0,22, 0.00,10.00,Tuesday
8,17379230.926339976
2,3, 1, 3, 0,22,10.00,20.00,Tuesday
8,21513779.238493174
2,3, 1, 3, 0,22,20.00,30.00,Tuesday
8,35135945.06257534
2,3, 1, 3, 0,22,30.00,40.00,Tuesday
8,44129681.79193458
2,3, 1, 3, 0,22,40.00,50.00,Tuesday
8,52517019.43146421
2,3, 1, 3, 0,22,50.00,60.00,Tuesday
8,51631450.9207559
2,3, 1, 3, 0,23, 0.00,10.00,Tuesday
8,58801616.32866522
2,3, 1, 3, 0,23,10.00,20.00,Tuesday
8,62243545.47803124
2,3, 1, 3, 0,23,20.00,30.00,Tuesday
8,64946359.083454795
2,3, 1, 3, 0,23,30.00,40.00,Tuesday
8,66462128.38792818
2,3, 1, 3, 0,23,40.00,50.00,Tuesday
8,68394365.57491754
2,3, 1, 3, 0,23,50.00,60.00,Tuesday
8,70222414.44819313
2,3, 1, 3, 0,24, 0.00,10.00,Tuesday
8,74469896.65499917
2,3, 1, 3, 0,24,10.00,20.00,Tuesday
8,75481284.25322826
2,3, 1, 3, 0,24,20.00,30.00,Tuesday
8,76626854.2601346
2,3, 1, 3, 0,24,30.00,40.00,Tuesday
8,77716571.38217847
2,3, 1, 3, 0,24,40.00,50.00,Tuesday
8,79292232.29448849
2,3, 1, 3, 0,24,50.00,60.00,Tuesday
8,79709173.43865387
2,4, 1, 4, 0, 1, 0.00,10.00,Wednesday
8,81065676.25202219
2,4, 1, 4, 0, 1,10.00,20.00,Wednesday
8,81395065.09780927
2,4, 1, 4, 0, 1,20.00,30.00,Wednesday
8,82100019.56598133
2,4, 1, 4, 0, 1,30.00,40.00,Wednesday
8,81666203.27706711
2,4, 1, 4, 0, 1,40.00,50.00,Wednesday
8,81755487.96079575
2,4, 1, 4, 0, 1,50.00,60.00,Wednesday
8,81822086.03104901
2,4, 1, 4, 0, 2, 0.00,10.00,Wednesday
8,82426011.26857938
2,4, 1, 4, 0, 2,10.00,20.00,Wednesday
8,81455163.46700734
2,4, 1, 4, 0, 2,20.00,30.00,Wednesday
8,80959176.15706447
2,4, 1, 4, 0, 2,30.00,40.00,Wednesday
8,80448567.48926777
2,4, 1, 4, 0, 2,40.00,50.00,Wednesday
8,80475673.83465263
2,4, 1, 4, 0, 2,50.00,60.00,Wednesday
8,79382670.51328625
2,4, 1, 4, 0, 3, 0.00,10.00,Wednesday
8,79837346.49326168
2,4, 1, 4, 0, 3,10.00,20.00,Wednesday
8,80073818.50302607
2,4, 1, 4, 0, 3,20.00,30.00,Wednesday
8,80828478.3775262
2,4, 1, 4, 0, 3,30.00,40.00,Wednesday
8,80469005.97591649
2,4, 1, 4, 0, 3,40.00,50.00,Wednesday
8,80657726.04171687
2,4, 1, 4, 0, 3,50.00,60.00,Wednesday
8,80842282.41143496
2,4, 1, 4, 0, 4, 0.00,10.00,Wednesday
8,81766289.29901475
2,4, 1, 4, 0, 4,10.00,20.00,Wednesday
8,81462013.23051625
2,4, 1, 4, 0, 4,20.00,30.00,Wednesday
8,81693822.80740322
2,4, 1, 4, 0, 4,30.00,40.00,Wednesday
8,81923940.487678
2,4, 1, 4, 0, 4,40.00,50.00,Wednesday
8,82704487.6248358
2,4, 1, 4, 0, 4,50.00,60.00,Wednesday
8,82376221.5060475
2,4, 1, 4, 0, 5, 0.00,10.00,Wednesday
8,81752819.72759981
2,4, 1, 4, 0, 5,10.00,20.00,Wednesday
8,81021569.11016597
2,4, 1, 4, 0, 5,20.00,30.00,Wednesday
8,80801037.26322348
2,4, 1, 4, 0, 5,30.00,40.00,Wednesday
8,79490390.7688977
2,4, 1, 4, 0, 5,40.00,50.00,Wednesday
8,78720962.47543742
2,4, 1, 4, 0, 5,50.00,60.00,Wednesday
8,78000543.47145213
2,4, 1, 4, 0, 6, 0.00,10.00,Wednesday
8,79618550.08136885
2,4, 1, 4, 0, 6,10.00,20.00,Wednesday
8,80217938.29666488
2,4, 1, 4, 0, 6,20.00,30.00,Wednesday
8,81313798.38069308
2,4, 1, 4, 0, 6,30.00,40.00,Wednesday
8,82500663.20190872
2,4, 1, 4, 0, 6,40.00,50.00,Wednesday
8,83908652.73726848
2,4, 1, 4, 0, 6,50.00,60.00,Wednesday
8,84550441.9185297
2,4, 1, 4, 0, 7, 0.00,10.00,Wednesday
8,83135162.8168313
2,4, 1, 4, 0, 7,10.00,20.00,Wednesday
8,81754297.80871801
2,4, 1, 4, 0, 7,20.00,30.00,Wednesday
8,80584195.53828056
2,4, 1, 4, 0, 7,30.00,40.00,Wednesday
8,78624561.22246319
2,4, 1, 4, 0, 7,40.00,50.00,Wednesday
8,77104182.4447924
2,4, 1, 4, 0, 7,50.00,60.00,Wednesday
8,75780421.89917889
2,4, 1, 4, 0, 8, 0.00,10.00,Wednesday
8,138073546.4608656
2,4, 1, 4, 0, 8,10.00,20.00,Wednesday
8,107537656.72492898
2,4, 1, 4, 0, 8,20.00,30.00,Wednesday
8,110800241.32636078
2,4, 1, 4, 0, 8,30.00,40.00,Wednesday
8,107430524.11904696
2,4, 1, 4, 0, 8,40.00,50.00,Wednesday
8,107301830.20243298
2,4, 1, 4, 0, 8,50.00,60.00,Wednesday
8,107179487.92602275
2,4, 1, 4, 0, 9, 0.00,10.00,Wednesday
8,128791727.05665489
2,4, 1, 4, 0, 9,10.00,20.00,Wednesday
8,145434988.96165618
2,4, 1, 4, 0, 9,20.00,30.00,Wednesday
8,101151657.98708297
2,4, 1, 4, 0, 9,30.00,40.00,Wednesday
8,113038611.72843024
2,4, 1, 4, 0, 9,40.00,50.00,Wednesday
8,107221163.00774093
2,4, 1, 4, 0, 9,50.00,60.00,Wednesday
8,102868057.35658856
2,4, 1, 4, 0,10, 0.00,10.00,Wednesday
8,192551077.4246681
2,4, 1, 4, 0,10,10.00,20.00,Wednesday
8,192106495.70142817
2,4, 1, 4, 0,10,20.00,30.00,Wednesday
8,193031530.1672489
2,4, 1, 4, 0,10,30.00,40.00,Wednesday
8,194673954.8221699
2,4, 1, 4, 0,10,40.00,50.00,Wednesday
8,196355484.54560754
2,4, 1, 4, 0,10,50.00,60.00,Wednesday
8,198163844.34755018
2,4, 1, 4, 0,11, 0.00,10.00,Wednesday
8,188719083.8387011
2,4, 1, 4, 0,11,10.00,20.00,Wednesday
8,184368658.92548072
2,4, 1, 4, 0,11,20.00,30.00,Wednesday
8,180637129.55493116
2,4, 1, 4, 0,11,30.00,40.00,Wednesday
8,177095121.1293425
2,4, 1, 4, 0,11,40.00,50.00,Wednesday
8,173659657.2131598
2,4, 1, 4, 0,11,50.00,60.00,Wednesday
8,170388045.3445401
2,4, 1, 4, 0,12, 0.00,10.00,Wednesday
8,170146174.79718804
2,4, 1, 4, 0,12,10.00,20.00,Wednesday
8,172368405.71373317
2,4, 1, 4, 0,12,20.00,30.00,Wednesday
8,174895291.7693021
2,4, 1, 4, 0,12,30.00,40.00,Wednesday
8,177608475.52629864
2,4, 1, 4, 0,12,40.00,50.00,Wednesday
8,180425525.0534006
2,4, 1, 4, 0,12,50.00,60.00,Wednesday
8,183324054.03646114
2,4, 1, 4, 0,13, 0.00,10.00,Wednesday
8,180129717.23787555
2,4, 1, 4, 0,13,10.00,20.00,Wednesday
8,176408508.6900629
2,4, 1, 4, 0,13,20.00,30.00,Wednesday
8,172807398.06492788
2,4, 1, 4, 0,13,30.00,40.00,Wednesday
8,169229572.74005166
2,4, 1, 4, 0,13,40.00,50.00,Wednesday
8,165693083.9336075
2,4, 1, 4, 0,13,50.00,60.00,Wednesday
8,162285081.18007335
2,4, 1, 4, 0,14, 0.00,10.00,Wednesday
8,161845043.52340475
2,4, 1, 4, 0,14,10.00,20.00,Wednesday
8,160039491.20381576
2,4, 1, 4, 0,14,20.00,30.00,Wednesday
8,158185654.27387342
2,4, 1, 4, 0,14,30.00,40.00,Wednesday
8,156189427.36847076
2,4, 1, 4, 0,14,40.00,50.00,Wednesday
8,154142826.50357127
2,4, 1, 4, 0,14,50.00,60.00,Wednesday
8,152068695.0704656
2,4, 1, 4, 0,15, 0.00,10.00,Wednesday
8,148839988.18202215
2,4, 1, 4, 0,15,10.00,20.00,Wednesday
8,144960275.16940334
2,4, 1, 4, 0,15,20.00,30.00,Wednesday
8,140988783.4352714
2,4, 1, 4, 0,15,30.00,40.00,Wednesday
8,137081203.8422302