Program Version,EnergyPlus, Version 23.2.0-7636e6b3e9, YMD=2025.01.19 15:46
1,5,Environment Title[],Latitude[deg],Longitude[deg],Time Zone[],Elevation[m]
2,8,Day of Simulation[],Month[],Day of Month[],DST Indicator[1=yes 0=no],Hour[],StartMinute[],EndMinute[],DayType
3,5,Cumulative Day of Simulation[],Month[],Day of Month[],DST Indicator[1=yes 0=no],DayType  ! When Daily Report Variables Requested
4,2,Cumulative Days of Simulation[],Month[]  ! When Monthly Report Variables Requested
5,1,Cumulative Days of Simulation[] ! When Run Period Report Variables Requested
6,1,Calendar Year of Simulation[] ! When Annual Report Variables Requested
8,1,Electricity:Facility [J] !TimeStep
End of Data Dictionary
1,RUN PERIOD 1,  45.52, -73.42,  -5.00,  27.40
2,1, 1, 1, 0, 1, 0.00,10.00,Sunday
8,70454204.38250433
2,1, 1, 1, 0, 1,10.00,20.00,Sunday
8,68250657.03962736
2,1, 1, 1, 0, 1,20.00,30.00,Sunday
8,65365688.95410306
2,1, 1, 1, 0, 1,30.00,40.00,Sunday
8,62934562.29397141
2,1, 1, 1, 0, 1,40.00,50.00,Sunday
8,59835523.48933097
2,1, 1, 1, 0, 1,50.00,60.00,Sunday
8,56900929.54861506
2,1, 1, 1, 0, 2, 0.00,10.00,Sunday
8,58039443.283063725
2,1, 1, 1, 0, 2,10.00,20.00,Sunday
8,58628605.574324146
2,1, 1, 1, 0, 2,20.00,30.00,Sunday
8,58673885.36789567
2,1, 1, 1, 0, 2,30.00,40.00,Sunday
8,58552046.64785633
2,1, 1, 1, 0, 2,40.00,50.00,Sunday
8,58634332.11987422
2,1, 1, 1, 0, 2,50.00,60.00,Sunday
8,58943851.24672429
2,1, 1, 1, 0, 3, 0.00,10.00,Sunday
8,60058945.51234568
2,1, 1, 1, 0, 3,10.00,20.00,Sunday
8,60293650.884156734
2,1, 1, 1, 0, 3,20.00,30.00,Sunday
8,60737851.0942586
2,1, 1, 1, 0, 3,30.00,40.00,Sunday
8,61372297.1740787
2,1, 1, 1, 0, 3,40.00,50.00,Sunday
8,61923453.312874205
2,1, 1, 1, 0, 3,50.00,60.00,Sunday
8,61971979.92427191
2,1, 1, 1, 0, 4, 0.00,10.00,Sunday
8,58957025.600464396
2,1, 1, 1, 0, 4,10.00,20.00,Sunday
8,55833709.00598628
2,1, 1, 1, 0, 4,20.00,30.00,Sunday
8,52680497.71339192
2,1, 1, 1, 0, 4,30.00,40.00,Sunday
8,48903634.224864945
2,1, 1, 1, 0, 4,40.00,50.00,Sunday
8,45477202.6570153
2,1, 1, 1, 0, 4,50.00,60.00,Sunday
8,42171013.41693528
2,1, 1, 1, 0, 5, 0.00,10.00,Sunday
8,43812788.52971393
2,1, 1, 1, 0, 5,10.00,20.00,Sunday
8,44630199.080527894
2,1, 1, 1, 0, 5,20.00,30.00,Sunday
8,45829218.434468456
2,1, 1, 1, 0, 5,30.00,40.00,Sunday
8,47155904.37445799
2,1, 1, 1, 0, 5,40.00,50.00,Sunday
8,48639545.11137054
2,1, 1, 1, 0, 5,50.00,60.00,Sunday
8,49406245.36512723
2,1, 1, 1, 0, 6, 0.00,10.00,Sunday
8,48642291.940884165
2,1, 1, 1, 0, 6,10.00,20.00,Sunday
8,47924766.02029071
2,1, 1, 1, 0, 6,20.00,30.00,Sunday
8,47392055.94140575
2,1, 1, 1, 0, 6,30.00,40.00,Sunday
8,46106346.99676776
2,1, 1, 1, 0, 6,40.00,50.00,Sunday
8,45254378.68788668
2,1, 1, 1, 0, 6,50.00,60.00,Sunday
8,44511913.93983257
2,1, 1, 1, 0, 7, 0.00,10.00,Sunday
8,42091081.730247304
2,1, 1, 1, 0, 7,10.00,20.00,Sunday
8,38873284.59254458
2,1, 1, 1, 0, 7,20.00,30.00,Sunday
8,36111931.67223772
2,1, 1, 1, 0, 7,30.00,40.00,Sunday
8,33473497.399568982
2,1, 1, 1, 0, 7,40.00,50.00,Sunday
8,31094586.252691578
2,1, 1, 1, 0, 7,50.00,60.00,Sunday
8,27939217.473502025
2,1, 1, 1, 0, 8, 0.00,10.00,Sunday
8,29486243.176909678
2,1, 1, 1, 0, 8,10.00,20.00,Sunday
8,31088201.971954502
2,1, 1, 1, 0, 8,20.00,30.00,Sunday
8,32926808.64862209
2,1, 1, 1, 0, 8,30.00,40.00,Sunday
8,33820222.3838719
2,1, 1, 1, 0, 8,40.00,50.00,Sunday
8,35068486.03602827
2,1, 1, 1, 0, 8,50.00,60.00,Sunday
8,36314456.907450765
2,1, 1, 1, 0, 9, 0.00,10.00,Sunday
8,38693573.03168988
2,1, 1, 1, 0, 9,10.00,20.00,Sunday
8,40491259.87252632
2,1, 1, 1, 0, 9,20.00,30.00,Sunday
8,42770362.02008918
2,1, 1, 1, 0, 9,30.00,40.00,Sunday
8,44975599.728716396
2,1, 1, 1, 0, 9,40.00,50.00,Sunday
8,47297822.77143799
2,1, 1, 1, 0, 9,50.00,60.00,Sunday
8,48806957.43869824
2,1, 1, 1, 0,10, 0.00,10.00,Sunday
8,91030926.45338012
2,1, 1, 1, 0,10,10.00,20.00,Sunday
8,35605671.15660584
2,1, 1, 1, 0,10,20.00,30.00,Sunday
8,67506836.66985866
2,1, 1, 1, 0,10,30.00,40.00,Sunday
8,61801373.872540586
2,1, 1, 1, 0,10,40.00,50.00,Sunday
8,61370110.972980686
2,1, 1, 1, 0,10,50.00,60.00,Sunday
8,61948331.427511506
2,1, 1, 1, 0,11, 0.00,10.00,Sunday
8,98725838.27036227
2,1, 1, 1, 0,11,10.00,20.00,Sunday
8,97079267.99216104
2,1, 1, 1, 0,11,20.00,30.00,Sunday
8,81891350.33604926
2,1, 1, 1, 0,11,30.00,40.00,Sunday
8,87068575.15173386
2,1, 1, 1, 0,11,40.00,50.00,Sunday
8,91027937.53174542
2,1, 1, 1, 0,11,50.00,60.00,Sunday
8,94343431.46357936
2,1, 1, 1, 0,12, 0.00,10.00,Sunday
8,179603226.50786397
2,1, 1, 1, 0,12,10.00,20.00,Sunday
8,179489075.08033144
2,1, 1, 1, 0,12,20.00,30.00,Sunday
8,180063655.113773
2,1, 1, 1, 0,12,30.00,40.00,Sunday
8,180064289.6376512
2,1, 1, 1, 0,12,40.00,50.00,Sunday
8,181617917.40702906
2,1, 1, 1, 0,12,50.00,60.00,Sunday
8,182657303.88075376
2,1, 1, 1, 0,13, 0.00,10.00,Sunday
8,177422496.1812308
2,1, 1, 1, 0,13,10.00,20.00,Sunday
8,176104612.7300581
2,1, 1, 1, 0,13,20.00,30.00,Sunday
8,175143623.77997607
2,1, 1, 1, 0,13,30.00,40.00,Sunday
8,174319161.08187783
2,1, 1, 1, 0,13,40.00,50.00,Sunday
8,173779635.01887274
2,1, 1, 1, 0,13,50.00,60.00,Sunday
8,173120467.47983462
2,1, 1, 1, 0,14, 0.00,10.00,Sunday
8,173664511.89939538
2,1, 1, 1, 0,14,10.00,20.00,Sunday
8,174170659.13514638
2,1, 1, 1, 0,14,20.00,30.00,Sunday
8,175397388.67559695
2,1, 1, 1, 0,14,30.00,40.00,Sunday
8,177345697.50815013
2,1, 1, 1, 0,14,40.00,50.00,Sunday
8,178014829.53892952
2,1, 1, 1, 0,14,50.00,60.00,Sunday
8,179433518.2444507
2,1, 1, 1, 0,15, 0.00,10.00,Sunday
8,182676831.4924342
2,1, 1, 1, 0,15,10.00,20.00,Sunday
8,184184961.67554858
2,1, 1, 1, 0,15,20.00,30.00,Sunday
8,186427776.88225776
2,1, 1, 1, 0,15,30.00,40.00,Sunday
8,189190644.86045772
2,1, 1, 1, 0,15,40.00,50.00,Sunday
8,190973010.791287
2,1, 1, 1, 0,15,50.00,60.00,Sunday
8,193508942.2462252
2,1, 1, 1, 0,16, 0.00,10.00,Sunday
8,195025624.269598
2,1, 1, 1, 0,16,10.00,20.00,Sunday
8,195126544.9008406
2,1, 1, 1, 0,16,20.00,30.00,Sunday
8,195127706.88180146
2,1, 1, 1, 0,16,30.00,40.00,Sunday
8,195212383.96134442
2,1, 1, 1, 0,16,40.00,50.00,Sunday
8,195299172.88050735
2,1, 1, 1, 0,16,50.00,60.00,Sunday
8,195594929.3887358
2,1, 1, 1, 0,17, 0.00,10.00,Sunday
8,194950077.0893002
2,1, 1, 1, 0,17,10.00,20.00,Sunday
8,193371543.77629483
2,1, 1, 1, 0,17,20.00,30.00,Sunday
8,190957721.38207245
2,1, 1, 1, 0,17,30.00,40.00,Sunday
8,188457052.18995816
2,1, 1, 1, 0,17,40.00,50.00,Sunday
8,185770695.1202425
2,1, 1, 1, 0,17,50.00,60.00,Sunday
8,183050060.7498409
2,1, 1, 1, 0,18, 0.00,10.00,Sunday
8,183654150.93425307
2,1, 1, 1, 0,18,10.00,20.00,Sunday
8,183055547.176176
2,1, 1, 1, 0,18,20.00,30.00,Sunday
8,181741372.79975018
2,1, 1, 1, 0,18,30.00,40.00,Sunday
8,180917332.55938107
2,1, 1, 1, 0,18,40.00,50.00,Sunday
8,180222424.20747304
2,1, 1, 1, 0,18,50.00,60.00,Sunday
8,179173445.32137018
2,1, 1, 1, 0,19, 0.00,10.00,Sunday
8,177338897.34011027
2,1, 1, 1, 0,19,10.00,20.00,Sunday
8,178487924.80279553
2,1, 1, 1, 0,19,20.00,30.00,Sunday
8,179728736.98656267
2,1, 1, 1, 0,19,30.00,40.00,Sunday
8,179940596.20706984
2,1, 1, 1, 0,19,40.00,50.00,Sunday
8,181187213.4547744
2,1, 1, 1, 0,19,50.00,60.00,Sunday
8,181956774.15992936
2,1, 1, 1, 0,20, 0.00,10.00,Sunday
8,20860730.94224622
2,1, 1, 1, 0,20,10.00,20.00,Sunday
8,28820506.253349774
2,1, 1, 1, 0,20,20.00,30.00,Sunday
8,46269653.29401123
2,1, 1, 1, 0,20,30.00,40.00,Sunday
8,60274016.81029582
2,1, 1, 1, 0,20,40.00,50.00,Sunday
8,61652973.94764991
2,1, 1, 1, 0,20,50.00,60.00,Sunday
8,60677892.3991098
2,1, 1, 1, 0,21, 0.00,10.00,Sunday
8,66501649.35917571
2,1, 1, 1, 0,21,10.00,20.00,Sunday
8,67738858.39120325
2,1, 1, 1, 0,21,20.00,30.00,Sunday
8,66663523.35563609
2,1, 1, 1, 0,21,30.00,40.00,Sunday
8,66050756.059012294
2,1, 1, 1, 0,21,40.00,50.00,Sunday
8,65279854.76608045
2,1, 1, 1, 0,21,50.00,60.00,Sunday
8,64950857.31006371
2,1, 1, 1, 0,22, 0.00,10.00,Sunday
8,67458749.83309141
2,1, 1, 1, 0,22,10.00,20.00,Sunday
8,68151233.89673865
2,1, 1, 1, 0,22,20.00,30.00,Sunday
8,68402220.13491133
2,1, 1, 1, 0,22,30.00,40.00,Sunday
8,69149114.64173494
2,1, 1, 1, 0,22,40.00,50.00,Sunday
8,68701713.43893151
2,1, 1, 1, 0,22,50.00,60.00,Sunday
8,68760588.24638061
2,1, 1, 1, 0,23, 0.00,10.00,Sunday
8,69389135.7753449
2,1, 1, 1, 0,23,10.00,20.00,Sunday
8,69584389.2955313
2,1, 1, 1, 0,23,20.00,30.00,Sunday
8,68489330.35755749
2,1, 1, 1, 0,23,30.00,40.00,Sunday
8,67928868.31209032
2,1, 1, 1, 0,23,40.00,50.00,Sunday
8,67335112.72313114
2,1, 1, 1, 0,23,50.00,60.00,Sunday
8,67280400.10927288
2,1, 1, 1, 0,24, 0.00,10.00,Sunday
8,69441838.2665207
2,1, 1, 1, 0,24,10.00,20.00,Sunday
8,71742162.77407087
2,1, 1, 1, 0,24,20.00,30.00,Sunday
8,73974989.9892939
2,1, 1, 1, 0,24,30.00,40.00,Sunday
8,76759780.49410209
2,1, 1, 1, 0,24,40.00,50.00,Sunday
8,78410497.80855715
2,1, 1, 1, 0,24,50.00,60.00,Sunday
8,80615705.95167531
2,2, 1, 2, 0, 1, 0.00,10.00,Monday
8,80708568.05754913
2,2, 1, 2, 0, 1,10.00,20.00,Monday
8,81189972.41248709
2,2, 1, 2, 0, 1,20.00,30.00,Monday
8,80517528.1885415
2,2, 1, 2, 0, 1,30.00,40.00,Monday
8,80400784.38597192
2,2, 1, 2, 0, 1,40.00,50.00,Monday
8,80279315.4426922
2,2, 1, 2, 0, 1,50.00,60.00,Monday
8,80717005.65316184
2,2, 1, 2, 0, 2, 0.00,10.00,Monday
8,80338314.34035625
2,2, 1, 2, 0, 2,10.00,20.00,Monday
8,80475211.74548359
2,2, 1, 2, 0, 2,20.00,30.00,Monday
8,80606929.42273036
2,2, 1, 2, 0, 2,30.00,40.00,Monday
8,81302211.48617688
2,2, 1, 2, 0, 2,40.00,50.00,Monday
8,80869583.60912438
2,2, 1, 2, 0, 2,50.00,60.00,Monday
8,80999415.8996319
2,2, 1, 2, 0, 3, 0.00,10.00,Monday
8,80616481.06327039
2,2, 1, 2, 0, 3,10.00,20.00,Monday
8,80829033.4797525
2,2, 1, 2, 0, 3,20.00,30.00,Monday
8,79898515.61421143
2,2, 1, 2, 0, 3,30.00,40.00,Monday
8,79531688.63219742
2,2, 1, 2, 0, 3,40.00,50.00,Monday
8,79162478.4110338
2,2, 1, 2, 0, 3,50.00,60.00,Monday
8,79358150.03370918
2,2, 1, 2, 0, 4, 0.00,10.00,Monday
8,78956503.78118774
2,2, 1, 2, 0, 4,10.00,20.00,Monday
8,79160891.080513
2,2, 1, 2, 0, 4,20.00,30.00,Monday
8,79283991.8864923
2,2, 1, 2, 0, 4,30.00,40.00,Monday
8,79954396.54341467
2,2, 1, 2, 0, 4,40.00,50.00,Monday
8,79552235.65067668
2,2, 1, 2, 0, 4,50.00,60.00,Monday
8,79655067.53135298
2,2, 1, 2, 0, 5, 0.00,10.00,Monday
8,78848705.18795693
2,2, 1, 2, 0, 5,10.00,20.00,Monday
8,78421703.5191362
2,2, 1, 2, 0, 5,20.00,30.00,Monday
8,77236134.73746648
2,2, 1, 2, 0, 5,30.00,40.00,Monday
8,76231560.25269112
2,2, 1, 2, 0, 5,40.00,50.00,Monday
8,75350175.50389189
2,2, 1, 2, 0, 5,50.00,60.00,Monday
8,74813930.1595054
2,2, 1, 2, 0, 6, 0.00,10.00,Monday
8,75709233.37995991
2,2, 1, 2, 0, 6,10.00,20.00,Monday
8,76485149.72424383
2,2, 1, 2, 0, 6,20.00,30.00,Monday
8,77469430.35602275
2,2, 1, 2, 0, 6,30.00,40.00,Monday
8,78732717.55888844
2,2, 1, 2, 0, 6,40.00,50.00,Monday
8,79713425.03765985
2,2, 1, 2, 0, 6,50.00,60.00,Monday
8,80416877.38296531
2,2, 1, 2, 0, 7, 0.00,10.00,Monday
8,82431723.58979855
2,2, 1, 2, 0, 7,10.00,20.00,Monday
8,84617341.88103671
2,2, 1, 2, 0, 7,20.00,30.00,Monday
8,86637309.5841368
2,2, 1, 2, 0, 7,30.00,40.00,Monday
8,88215949.24567403
2,2, 1, 2, 0, 7,40.00,50.00,Monday
8,90100393.5972988
2,2, 1, 2, 0, 7,50.00,60.00,Monday
8,92162691.55927737
2,2, 1, 2, 0, 8, 0.00,10.00,Monday
8,153244413.44851267
2,2, 1, 2, 0, 8,10.00,20.00,Monday
8,132295542.1172281
2,2, 1, 2, 0, 8,20.00,30.00,Monday
8,124136533.34271419
2,2, 1, 2, 0, 8,30.00,40.00,Monday
8,120758689.94391067
2,2, 1, 2, 0, 8,40.00,50.00,Monday
8,120038646.19537383
2,2, 1, 2, 0, 8,50.00,60.00,Monday
8,118944842.51501492
2,2, 1, 2, 0, 9, 0.00,10.00,Monday
8,131751698.75960182
2,2, 1, 2, 0, 9,10.00,20.00,Monday
8,170324659.88888517
2,2, 1, 2, 0, 9,20.00,30.00,Monday
8,150114796.78821537
2,2, 1, 2, 0, 9,30.00,40.00,Monday
8,152155352.21620616
2,2, 1, 2, 0, 9,40.00,50.00,Monday
8,152627392.18659154
2,2, 1, 2, 0, 9,50.00,60.00,Monday
8,154355511.08380952
2,2, 1, 2, 0,10, 0.00,10.00,Monday
8,243573770.34663796
2,2, 1, 2, 0,10,10.00,20.00,Monday
8,238682311.97658327
2,2, 1, 2, 0,10,20.00,30.00,Monday
8,235025319.5905811
2,2, 1, 2, 0,10,30.00,40.00,Monday
8,231947004.47607812
2,2, 1, 2, 0,10,40.00,50.00,Monday
8,228956566.81196123
2,2, 1, 2, 0,10,50.00,60.00,Monday
8,225095012.45034987
2,2, 1, 2, 0,11, 0.00,10.00,Monday
8,217470187.53952414
2,2, 1, 2, 0,11,10.00,20.00,Monday
8,215509053.4087337
2,2, 1, 2, 0,11,20.00,30.00,Monday
8,213574860.7515599
2,2, 1, 2, 0,11,30.00,40.00,Monday
8,211937492.0337936
2,2, 1, 2, 0,11,40.00,50.00,Monday
8,210368870.84333423
2,2, 1, 2, 0,11,50.00,60.00,Monday
8,208954518.10136592
2,2, 1, 2, 0,12, 0.00,10.00,Monday
8,203528421.65951025
2,2, 1, 2, 0,12,10.00,20.00,Monday
8,200643733.30324557
2,2, 1, 2, 0,12,20.00,30.00,Monday
8,198083714.18205833
2,2, 1, 2, 0,12,30.00,40.00,Monday
8,195683233.39152926
2,2, 1, 2, 0,12,40.00,50.00,Monday
8,193374219.26582772
2,2, 1, 2, 0,12,50.00,60.00,Monday
8,191160421.4893881
2,2, 1, 2, 0,13, 0.00,10.00,Monday
8,187344690.2262369
2,2, 1, 2, 0,13,10.00,20.00,Monday
8,184340836.38202143
2,2, 1, 2, 0,13,20.00,30.00,Monday
8,181623016.97290277
2,2, 1, 2, 0,13,30.00,40.00,Monday
8,178935978.22508433
2,2, 1, 2, 0,13,40.00,50.00,Monday
8,176297058.51621854
2,2, 1, 2, 0,13,50.00,60.00,Monday
8,173700507.21587357
2,2, 1, 2, 0,14, 0.00,10.00,Monday
8,175205004.93658277
2,2, 1, 2, 0,14,10.00,20.00,Monday
8,177046971.26239067
2,2, 1, 2, 0,14,20.00,30.00,Monday
8,178969658.3427131
2,2, 1, 2, 0,14,30.00,40.00,Monday
8,180959365.97472984
2,2, 1, 2, 0,14,40.00,50.00,Monday
8,182979275.3239961
2,2, 1, 2, 0,14,50.00,60.00,Monday
8,185016219.3297389
2,2, 1, 2, 0,15, 0.00,10.00,Monday
8,183636837.23772275
2,2, 1, 2, 0,15,10.00,20.00,Monday
8,181755395.32062316
2,2, 1, 2, 0,15,20.00,30.00,Monday
8,179864102.19213104
2,2, 1, 2, 0,15,30.00,40.00,Monday
8,178016132.8013949
2,2, 1, 2, 0,15,40.00,50.00,Monday
8,176214419.92286837
2,2, 1, 2, 0,15,50.00,60.00,Monday
8,174439483.33596346
2,2, 1, 2, 0,16, 0.00,10.00,Monday
8,175937559.9540722
2,2, 1, 2, 0,16,10.00,20.00,Monday
8,176403108.3983991
2,2, 1, 2, 0,16,20.00,30.00,Monday
8,176777775.06706405
2,2, 1, 2, 0,16,30.00,40.00,Monday
8,177277190.66609007
2,2, 1, 2, 0,16,40.00,50.00,Monday
8,177876198.67238224
2,2, 1, 2, 0,16,50.00,60.00,Monday
8,178591403.39145288
2,2, 1, 2, 0,17, 0.00,10.00,Monday
8,174893368.508363
2,2, 1, 2, 0,17,10.00,20.00,Monday
8,170540293.0446632
2,2, 1, 2, 0,17,20.00,30.00,Monday
8,165416695.42459708
2,2, 1, 2, 0,17,30.00,40.00,Monday
8,160096986.16055667
2,2, 1, 2, 0,17,40.00,50.00,Monday
8,154670299.421482
2,2, 1, 2, 0,17,50.00,60.00,Monday
8,148616036.3510893
2,2, 1, 2, 0,18, 0.00,10.00,Monday
8,148053746.15306976
2,2, 1, 2, 0,18,10.00,20.00,Monday
8,146688961.97540987
2,2, 1, 2, 0,18,20.00,30.00,Monday
8,145022458.94517797
2,2, 1, 2, 0,18,30.00,40.00,Monday
8,143295101.18793762
2,2, 1, 2, 0,18,40.00,50.00,Monday
8,141529849.00230968
2,2, 1, 2, 0,18,50.00,60.00,Monday
8,139737528.96776885
2,2, 1, 2, 0,19, 0.00,10.00,Monday
8,140296421.75225452
2,2, 1, 2, 0,19,10.00,20.00,Monday
8,140433363.49420968
2,2, 1, 2, 0,19,20.00,30.00,Monday
8,140041808.3740646
2,2, 1, 2, 0,19,30.00,40.00,Monday
8,140276853.0837529
2,2, 1, 2, 0,19,40.00,50.00,Monday
8,140425419.9039302
2,2, 1, 2, 0,19,50.00,60.00,Monday
8,140346260.21977255
2,2, 1, 2, 0,20, 0.00,10.00,Monday
8,119669749.09032537
2,2, 1, 2, 0,20,10.00,20.00,Monday
8,120159615.19304517
2,2, 1, 2, 0,20,20.00,30.00,Monday
8,120401643.57763094
2,2, 1, 2, 0,20,30.00,40.00,Monday
8,122708295.52057506
2,2, 1, 2, 0,20,40.00,50.00,Monday
8,126587747.00646237
2,2, 1, 2, 0,20,50.00,60.00,Monday
8,123346846.37656994
2,2, 1, 2, 0,21, 0.00,10.00,Monday
8,121629470.46421622
2,2, 1, 2, 0,21,10.00,20.00,Monday
8,120261256.70074473
2,2, 1, 2, 0,21,20.00,30.00,Monday
8,117629496.35628608
2,2, 1, 2, 0,21,30.00,40.00,Monday
8,115082919.23278125
2,2, 1, 2, 0,21,40.00,50.00,Monday
8,112976219.45614897
2,2, 1, 2, 0,21,50.00,60.00,Monday
8,109860617.18909357
2,2, 1, 2, 0,22, 0.00,10.00,Monday
8,5904822.301612496
2,2, 1, 2, 0,22,10.00,20.00,Monday
8,6807131.647067975
2,2, 1, 2, 0,22,20.00,30.00,Monday
8,10411030.202171575
2,2, 1, 2, 0,22,30.00,40.00,Monday
8,14104993.87922528
2,2, 1, 2, 0,22,40.00,50.00,Monday
8,17525409.65326836
2,2, 1, 2, 0,22,50.00,60.00,Monday
8,27954560.81633717
2,2, 1, 2, 0,23, 0.00,10.00,Monday
8,42060902.776464
2,2, 1, 2, 0,23,10.00,20.00,Monday
8,45692549.380877204
2,2, 1, 2, 0,23,20.00,30.00,Monday
8,46804107.32313163
2,2, 1, 2, 0,23,30.00,40.00,Monday
8,48855904.334458046
2,2, 1, 2, 0,23,40.00,50.00,Monday
8,50568603.10044845
2,2, 1, 2, 0,23,50.00,60.00,Monday
8,52160797.35518388
2,2, 1, 2, 0,24, 0.00,10.00,Monday
8,55684908.744514525
2,2, 1, 2, 0,24,10.00,20.00,Monday
8,55975994.45260257
2,2, 1, 2, 0,24,20.00,30.00,Monday
8,56428335.8420879
2,2, 1, 2, 0,24,30.00,40.00,Monday
8,56831216.474444956
2,2, 1, 2, 0,24,40.00,50.00,Monday
8,57724544.775455244
2,2, 1, 2, 0,24,50.00,60.00,Monday
8,57458085.77721627
2,3, 1, 3, 0, 1, 0.00,10.00,Tuesday
8,58235487.3658872
2,3, 1, 3, 0, 1,10.00,20.00,Tuesday
8,57891362.0667628
2,3, 1, 3, 0, 1,20.00,30.00,Tuesday
8,57903629.24239883
2,3, 1, 3, 0, 1,30.00,40.00,Tuesday
8,56766977.919821784
2,3, 1, 3, 0, 1,40.00,50.00,Tuesday
8,56150897.9907915
2,3, 1, 3, 0, 1,50.00,60.00,Tuesday
8,55509985.601961695
2,3, 1, 3, 0, 2, 0.00,10.00,Tuesday
8,58209448.735615574
2,3, 1, 3, 0, 2,10.00,20.00,Tuesday
8,59417972.88657191
2,3, 1, 3, 0, 2,20.00,30.00,Tuesday
8,61118712.50615605
2,3, 1, 3, 0, 2,30.00,40.00,Tuesday
8,62806750.840663806
2,3, 1, 3, 0, 2,40.00,50.00,Tuesday
8,65037783.09020416
2,3, 1, 3, 0, 2,50.00,60.00,Tuesday
8,66145058.50397702
2,3, 1, 3, 0, 3, 0.00,10.00,Tuesday
8,66833030.5379144
2,3, 1, 3, 0, 3,10.00,20.00,Tuesday
8,67451092.61765066
2,3, 1, 3, 0, 3,20.00,30.00,Tuesday
8,68615716.3409881
2,3, 1, 3, 0, 3,30.00,40.00,Tuesday
8,68664680.67233007
2,3, 1, 3, 0, 3,40.00,50.00,Tuesday
8,69268610.02084932
2,3, 1, 3, 0, 3,50.00,60.00,Tuesday
8,69871220.69205105
2,3, 1, 3, 0, 4, 0.00,10.00,Tuesday
8,70315476.6605977
2,3, 1, 3, 0, 4,10.00,20.00,Tuesday
8,69622760.11639097
2,3, 1, 3, 0, 4,20.00,30.00,Tuesday
8,69486092.23418297
2,3, 1, 3, 0, 4,30.00,40.00,Tuesday
8,69350970.10026038
2,3, 1, 3, 0, 4,40.00,50.00,Tuesday
8,69773403.68250388
2,3, 1, 3, 0, 4,50.00,60.00,Tuesday
8,69080954.39950322
2,3, 1, 3, 0, 5, 0.00,10.00,Tuesday
8,71210038.41329639
2,3, 1, 3, 0, 5,10.00,20.00,Tuesday
8,73265599.8403978
2,3, 1, 3, 0, 5,20.00,30.00,Tuesday
8,75864635.92773135
2,3, 1, 3, 0, 5,30.00,40.00,Tuesday
8,77346367.83753042
2,3, 1, 3, 0, 5,40.00,50.00,Tuesday
8,79385906.69106618
2,3, 1, 3, 0, 5,50.00,60.00,Tuesday
8,81427366.95914106
2,3, 1, 3, 0, 6, 0.00,10.00,Tuesday
8,83537809.38977067
2,3, 1, 3, 0, 6,10.00,20.00,Tuesday
8,84567440.19117585
2,3, 1, 3, 0, 6,20.00,30.00,Tuesday
8,86159526.31503542
2,3, 1, 3, 0, 6,30.00,40.00,Tuesday
8,87750650.95418814
2,3, 1, 3, 0, 6,40.00,50.00,Tuesday
8,89899487.80404903
2,3, 1, 3, 0, 6,50.00,60.00,Tuesday
8,90926906.33948295
2,3, 1, 3, 0, 7, 0.00,10.00,Tuesday
8,89444508.93784371
2,3, 1, 3, 0, 7,10.00,20.00,Tuesday
8,87999479.51495795
2,3, 1, 3, 0, 7,20.00,30.00,Tuesday
8,87127260.19884361
2,3, 1, 3, 0, 7,30.00,40.00,Tuesday
8,85148861.24636956
2,3, 1, 3, 0, 7,40.00,50.00,Tuesday
8,83740763.4449196
2,3, 1, 3, 0, 7,50.00,60.00,Tuesday
8,82344925.7328297
2,3, 1, 3, 0, 8, 0.00,10.00,Tuesday
8,137225108.18550003
2,3, 1, 3, 0, 8,10.00,20.00,Tuesday
8,103269505.67564288
2,3, 1, 3, 0, 8,20.00,30.00,Tuesday
8,99423014.41942637
2,3, 1, 3, 0, 8,30.00,40.00,Tuesday
8,92479734.17922969
2,3, 1, 3, 0, 8,40.00,50.00,Tuesday
8,87330936.66458228
2,3, 1, 3, 0, 8,50.00,60.00,Tuesday
8,82613851.68278931
2,3, 1, 3, 0, 9, 0.00,10.00,Tuesday
8,122894734.35177532
2,3, 1, 3, 0, 9,10.00,20.00,Tuesday
8,121283981.95900016
2,3, 1, 3, 0, 9,20.00,30.00,Tuesday
8,89835715.79712367
2,3, 1, 3, 0, 9,30.00,40.00,Tuesday
8,100829475.21337682
2,3, 1, 3, 0, 9,40.00,50.00,Tuesday
8,96067632.10973383
2,3, 1, 3, 0, 9,50.00,60.00,Tuesday
8,95013125.54794626
2,3, 1, 3, 0,10, 0.00,10.00,Tuesday
8,158525730.44831032
2,3, 1, 3, 0,10,10.00,20.00,Tuesday
8,151687394.36917904
2,3, 1, 3, 0,10,20.00,30.00,Tuesday
8,146155822.9580731
2,3, 1, 3, 0,10,30.00,40.00,Tuesday
8,141052027.15982616
2,3, 1, 3, 0,10,40.00,50.00,Tuesday
8,136088648.63586274
2,3, 1, 3, 0,10,50.00,60.00,Tuesday
8,131372833.20288348
2,3, 1, 3, 0,11, 0.00,10.00,Tuesday
8,129795148.55496857
2,3, 1, 3, 0,11,10.00,20.00,Tuesday
8,131927892.388184
2,3, 1, 3, 0,11,20.00,30.00,Tuesday
8,134619289.41552627
2,3, 1, 3, 0,11,30.00,40.00,Tuesday
8,137386317.6949303
2,3, 1, 3, 0,11,40.00,50.00,Tuesday
8,140371135.5210556
2,3, 1, 3, 0,11,50.00,60.00,Tuesday
8,143500028.58537963
2,3, 1, 3, 0,12, 0.00,10.00,Tuesday
8,141617063.70274293
2,3, 1, 3, 0,12,10.00,20.00,Tuesday
8,140918263.1719812
2,3, 1, 3, 0,12,20.00,30.00,Tuesday
8,140417303.92957962
2,3, 1, 3, 0,12,30.00,40.00,Tuesday
8,140023118.3797034
2,3, 1, 3, 0,12,40.00,50.00,Tuesday
8,139685968.29276493
2,3, 1, 3, 0,12,50.00,60.00,Tuesday
8,139554989.05597824
2,3, 1, 3, 0,13, 0.00,10.00,Tuesday
8,137329811.8274258
2,3, 1, 3, 0,13,10.00,20.00,Tuesday
8,135681031.82918298
2,3, 1, 3, 0,13,20.00,30.00,Tuesday
8,134178115.26868127
2,3, 1, 3, 0,13,30.00,40.00,Tuesday
8,132703352.42380765
2,3, 1, 3, 0,13,40.00,50.00,Tuesday
8,131258763.53430468
2,3, 1, 3, 0,13,50.00,60.00,Tuesday
8,129837994.94500624
2,3, 1, 3, 0,14, 0.00,10.00,Tuesday
8,129154201.40732183
2,3, 1, 3, 0,14,10.00,20.00,Tuesday
8,128850450.85612606
2,3, 1, 3, 0,14,20.00,30.00,Tuesday
8,128539691.85163403
2,3, 1, 3, 0,14,30.00,40.00,Tuesday
8,128119361.97609676
2,3, 1, 3, 0,14,40.00,50.00,Tuesday
8,127583438.40925746
2,3, 1, 3, 0,14,50.00,60.00,Tuesday
8,127113172.94971752
2,3, 1, 3, 0,15, 0.00,10.00,Tuesday
8,124325751.42397973
2,3, 1, 3, 0,15,10.00,20.00,Tuesday
8,122378585.90893872
2,3, 1, 3, 0,15,20.00,30.00,Tuesday
8,120457966.17868684
2,3, 1, 3, 0,15,30.00,40.00,Tuesday
8,118655591.37058663
2,3, 1, 3, 0,15,40.00,50.00,Tuesday
8,116981705.48938999
2,3, 1, 3, 0,15,50.00,60.00,Tuesday
8,115377993.87264486
2,3, 1, 3, 0,16, 0.00,10.00,Tuesday
8,113087880.92335115
2,3, 1, 3, 0,16,10.00,20.00,Tuesday
8,111320321.26689835
2,3, 1, 3, 0,16,20.00,30.00,Tuesday
8,109626633.76602517
2,3, 1, 3, 0,16,30.00,40.00,Tuesday
8,108150083.58267193
2,3, 1, 3, 0,16,40.00,50.00,Tuesday
8,106841167.45509467
2,3, 1, 3, 0,16,50.00,60.00,Tuesday
8,105610047.79386277
2,3, 1, 3, 0,17, 0.00,10.00,Tuesday
8,104007929.25535396
2,3, 1, 3, 0,17,10.00,20.00,Tuesday
8,102832630.3078769
2,3, 1, 3, 0,17,20.00,30.00,Tuesday
8,101112632.04407607
2,3, 1, 3, 0,17,30.00,40.00,Tuesday
8,99262072.74086826
2,3, 1, 3, 0,17,40.00,50.00,Tuesday
8,97354028.38367401
2,3, 1, 3, 0,17,50.00,60.00,Tuesday
8,94845038.93078293
2,3, 1, 3, 0,18, 0.00,10.00,Tuesday
8,95263809.47715482
2,3, 1, 3, 0,18,10.00,20.00,Tuesday
8,95364349.96301007
2,3, 1, 3, 0,18,20.00,30.00,Tuesday
8,95220019.79507446
2,3, 1, 3, 0,18,30.00,40.00,Tuesday
8,95054470.68342422
2,3, 1, 3, 0,18,40.00,50.00,Tuesday
8,94861471.82666636
2,3, 1, 3, 0,18,50.00,60.00,Tuesday
8,94645856.01342784
2,3, 1, 3, 0,19, 0.00,10.00,Tuesday
8,93661372.73640625
2,3, 1, 3, 0,19,10.00,20.00,Tuesday
8,92505457.68111666
2,3, 1, 3, 0,19,20.00,30.00,Tuesday
8,91030268.25795425
2,3, 1, 3, 0,19,30.00,40.00,Tuesday
8,90205366.54729706
2,3, 1, 3, 0,19,40.00,50.00,Tuesday
8,89156519.01900542
2,3, 1, 3, 0,19,50.00,60.00,Tuesday
8,87968351.89168847
2,3, 1, 3, 0,20, 0.00,10.00,Tuesday
8,75214998.90926297
2,3, 1, 3, 0,20,10.00,20.00,Tuesday
8,77754747.31486526
2,3, 1, 3, 0,20,20.00,30.00,Tuesday
8,79779684.60095097
2,3, 1, 3, 0,20,30.00,40.00,Tuesday
8,80982224.39577764
2,3, 1, 3, 0,20,40.00,50.00,Tuesday
8,84046159.25577746
2,3, 1, 3, 0,20,50.00,60.00,Tuesday
8,87111096.79510953
2,3, 1, 3, 0,21, 0.00,10.00,Tuesday
8,91459551.41694896
2,3, 1, 3, 0,21,10.00,20.00,Tuesday
8,94490977.36675538
2,3, 1, 3, 0,21,20.00,30.00,Tuesday
8,97140398.8474694
2,3, 1, 3, 0,21,30.00,40.00,Tuesday
8,100022580.78003153
2,3, 1, 3, 0,21,40.00,50.00,Tuesday
8,103058560.31994182
2,3, 1, 3, 0,21,50.00,60.00,Tuesday
8,105143064.98399195
2,3, 1, 3, 0,22, 0.00,10.00,Tuesday
8,9854293.253885077
2,3, 1, 3, 0,22,10.00,20.00,Tuesday
8,11381272.252730722
2,3, 1, 3, 0,22,20.00,30.00,Tuesday
8,14257576.851359418
2,3, 1, 3, 0,22,30.00,40.00,Tuesday
8,24919813.299913377
2,3, 1, 3, 0,22,40.00,50.00,Tuesday
8,44297300.54548997
2,3, 1, 3, 0,22,50.00,60.00,Tuesday
8,31276036.07697866
2,3, 1, 3, 0,23, 0.00,10.00,Tuesday
8,37567648.09225782
2,3, 1, 3, 0,23,10.00,20.00,Tuesday
8,40108667.07126771
2,3, 1, 3, 0,23,20.00,30.00,Tuesday
8,41212783.81259838
2,3, 1, 3, 0,23,30.00,40.00,Tuesday
8,41216397.52522767
2,3, 1, 3, 0,23,40.00,50.00,Tuesday
8,41679979.53200438
2,3, 1, 3, 0,23,50.00,60.00,Tuesday
8,42056038.5658642
2,3, 1, 3, 0,24, 0.00,10.00,Tuesday
8,46425197.424932756
2,3, 1, 3, 0,24,10.00,20.00,Tuesday
8,47666407.01237219
2,3, 1, 3, 0,24,20.00,30.00,Tuesday
8,49013472.465935
2,3, 1, 3, 0,24,30.00,40.00,Tuesday
8,50303927.51490501
2,3, 1, 3, 0,24,40.00,50.00,Tuesday
8,52080030.09880764
2,3, 1, 3, 0,24,50.00,60.00,Tuesday
8,52693561.84948982
2,4, 1, 4, 0, 1, 0.00,10.00,Wednesday
8,52860174.696816385
2,4, 1, 4, 0, 1,10.00,20.00,Wednesday
8,51973254.198664784
2,4, 1, 4, 0, 1,20.00,30.00,Wednesday
8,51444072.78292392
2,4, 1, 4, 0, 1,30.00,40.00,Wednesday
8,49763789.19958344
2,4, 1, 4, 0, 1,40.00,50.00,Wednesday
8,48597194.319795944
2,4, 1, 4, 0, 1,50.00,60.00,Wednesday
8,47397346.17932487
2,4, 1, 4, 0, 2, 0.00,10.00,Wednesday
8,49453451.1998083
2,4, 1, 4, 0, 2,10.00,20.00,Wednesday
8,49923344.347531706
2,4, 1, 4, 0, 2,20.00,30.00,Wednesday
8,50871529.148139395
2,4, 1, 4, 0, 2,30.00,40.00,Wednesday
8,51809975.50255293
2,4, 1, 4, 0, 2,40.00,50.00,Wednesday
8,53294301.767882936
2,4, 1, 4, 0, 2,50.00,60.00,Wednesday
8,53660464.79998147
2,4, 1, 4, 0, 3, 0.00,10.00,Wednesday
8,55645098.261773214
2,4, 1, 4, 0, 3,10.00,20.00,Wednesday
8,57438087.56160005
2,4, 1, 4, 0, 3,20.00,30.00,Wednesday
8,59772892.29026839
2,4, 1, 4, 0, 3,30.00,40.00,Wednesday
8,61010747.0102725
2,4, 1, 4, 0, 3,40.00,50.00,Wednesday
8,62819173.63879124
2,4, 1, 4, 0, 3,50.00,60.00,Wednesday
8,64644004.71658353
2,4, 1, 4, 0, 4, 0.00,10.00,Wednesday
8,62062944.56390197
2,4, 1, 4, 0, 4,10.00,20.00,Wednesday
8,58238745.97712066
2,4, 1, 4, 0, 4,20.00,30.00,Wednesday
8,54935302.94049355
2,4, 1, 4, 0, 4,30.00,40.00,Wednesday
8,51610914.817018904
2,4, 1, 4, 0, 4,40.00,50.00,Wednesday
8,48819687.08904228
2,4, 1, 4, 0, 4,50.00,60.00,Wednesday
8,44893950.793410234
2,4, 1, 4, 0, 5, 0.00,10.00,Wednesday
8,48593090.99134173
2,4, 1, 4, 0, 5,10.00,20.00,Wednesday
8,52183509.11836561
2,4, 1, 4, 0, 5,20.00,30.00,Wednesday
8,56365767.882502824
2,4, 1, 4, 0, 5,30.00,40.00,Wednesday
8,59495200.53468215
2,4, 1, 4, 0, 5,40.00,50.00,Wednesday
8,63239519.874083154
2,4, 1, 4, 0, 5,50.00,60.00,Wednesday
8,67044039.89380642
2,4, 1, 4, 0, 6, 0.00,10.00,Wednesday
8,68879479.7857047
2,4, 1, 4, 0, 6,10.00,20.00,Wednesday
8,69381522.58940895
2,4, 1, 4, 0, 6,20.00,30.00,Wednesday
8,70402505.105188
2,4, 1, 4, 0, 6,30.00,40.00,Wednesday
8,71418752.76494646
2,4, 1, 4, 0, 6,40.00,50.00,Wednesday
8,72987699.16231926
2,4, 1, 4, 0, 6,50.00,60.00,Wednesday
8,73443530.47949384
2,4, 1, 4, 0, 7, 0.00,10.00,Wednesday
8,69706013.19927241
2,4, 1, 4, 0, 7,10.00,20.00,Wednesday
8,65893606.12356243
2,4, 1, 4, 0, 7,20.00,30.00,Wednesday
8,62607852.828680284
2,4, 1, 4, 0, 7,30.00,40.00,Wednesday
8,58191078.4915283
2,4, 1, 4, 0, 7,40.00,50.00,Wednesday
8,54313080.48188538
2,4, 1, 4, 0, 7,50.00,60.00,Wednesday
8,50418460.35160129
2,4, 1, 4, 0, 8, 0.00,10.00,Wednesday
8,108787120.6021009
2,4, 1, 4, 0, 8,10.00,20.00,Wednesday
8,75950982.28476812
2,4, 1, 4, 0, 8,20.00,30.00,Wednesday
8,81648723.10266812
2,4, 1, 4, 0, 8,30.00,40.00,Wednesday
8,76345289.00845282
2,4, 1, 4, 0, 8,40.00,50.00,Wednesday
8,76190638.41518293
2,4, 1, 4, 0, 8,50.00,60.00,Wednesday
8,75938225.27394082
2,4, 1, 4, 0, 9, 0.00,10.00,Wednesday
8,118869349.79900576
2,4, 1, 4, 0, 9,10.00,20.00,Wednesday
8,114044009.21292672
2,4, 1, 4, 0, 9,20.00,30.00,Wednesday
8,91395126.99667789
2,4, 1, 4, 0, 9,30.00,40.00,Wednesday
8,94221862.23535523
2,4, 1, 4, 0, 9,40.00,50.00,Wednesday
8,93376870.23704879
2,4, 1, 4, 0, 9,50.00,60.00,Wednesday
8,92701462.13896242
2,4, 1, 4, 0,10, 0.00,10.00,Wednesday
8,153309327.35337314
2,4, 1, 4, 0,10,10.00,20.00,Wednesday
8,153008850.6090082
2,4, 1, 4, 0,10,20.00,30.00,Wednesday
8,153921292.63111764
2,4, 1, 4, 0,10,30.00,40.00,Wednesday
8,155406039.56583092
2,4, 1, 4, 0,10,40.00,50.00,Wednesday
8,156896867.34913388
2,4, 1, 4, 0,10,50.00,60.00,Wednesday
8,158567595.89952102
2,4, 1, 4, 0,11, 0.00,10.00,Wednesday
8,153347954.58393756
2,4, 1, 4, 0,11,10.00,20.00,Wednesday
8,152333182.27040607
2,4, 1, 4, 0,11,20.00,30.00,Wednesday
8,151720909.02726245
2,4, 1, 4, 0,11,30.00,40.00,Wednesday
8,151243507.03177235
2,4, 1, 4, 0,11,40.00,50.00,Wednesday
8,150824496.03927308
2,4, 1, 4, 0,11,50.00,60.00,Wednesday
8,150566944.11195734
2,4, 1, 4, 0,12, 0.00,10.00,Wednesday
8,146780864.54264256
2,4, 1, 4, 0,12,10.00,20.00,Wednesday
8,145263926.10376748
2,4, 1, 4, 0,12,20.00,30.00,Wednesday
8,143927684.0469441
2,4, 1, 4, 0,12,30.00,40.00,Wednesday
8,142673427.49520385
2,4, 1, 4, 0,12,40.00,50.00,Wednesday
8,141402562.88286304
2,4, 1, 4, 0,12,50.00,60.00,Wednesday
8,140349151.14887917
2,4, 1, 4, 0,13, 0.00,10.00,Wednesday
8,140325056.59910065
2,4, 1, 4, 0,13,10.00,20.00,Wednesday
8,141111745.5677302
2,4, 1, 4, 0,13,20.00,30.00,Wednesday
8,142057884.64298502
2,4, 1, 4, 0,13,30.00,40.00,Wednesday
8,142998236.89711848
2,4, 1, 4, 0,13,40.00,50.00,Wednesday
8,143942115.22720256
2,4, 1, 4, 0,13,50.00,60.00,Wednesday
8,144890319.47117707
2,4, 1, 4, 0,14, 0.00,10.00,Wednesday
8,141513540.61837816
2,4, 1, 4, 0,14,10.00,20.00,Wednesday
8,139024369.98903885
2,4, 1, 4, 0,14,20.00,30.00,Wednesday
8,136679255.95412916
2,4, 1, 4, 0,14,30.00,40.00,Wednesday
8,134532185.6570978
2,4, 1, 4, 0,14,40.00,50.00,Wednesday
8,132475869.62361567
2,4, 1, 4, 0,14,50.00,60.00,Wednesday
8,130477309.48405787
2,4, 1, 4, 0,15, 0.00,10.00,Wednesday
8,132871495.62091838
2,4, 1, 4, 0,15,10.00,20.00,Wednesday
8,134818558.05303475
2,4, 1, 4, 0,15,20.00,30.00,Wednesday
8,136797965.46901757
2,4, 1, 4, 0,15,30.00,40.00,Wednesday
8,138839175.14391276
2,4, 1, 4, 0,15,40.00,50.00,Wednesday
8,140915898.3695635