Program Version,EnergyPlus, Version 23.2.0-7636e6b3e9, YMD=2025.01.19 15:44
1,5,Environment Title[],Latitude[deg],Longitude[deg],Time Zone[],Elevation[m]
2,8,Day of Simulation[],Month[],Day of Month[],DST Indicator[1=yes 0=no],Hour[],StartMinute[],EndMinute[],DayType
3,5,Cumulative Day of Simulation[],Month[],Day of Month[],DST Indicator[1=yes 0=no],DayType  ! When Daily Report Variables Requested
4,2,Cumulative Days of Simulation[],Month[]  ! When Monthly Report Variables Requested
5,1,Cumulative Days of Simulation[] ! When Run Period Report Variables Requested
6,1,Calendar Year of Simulation[] ! When Annual Report Variables Requested
8,1,Electricity:Facility [J] !TimeStep
End of Data Dictionary
1,RUN PERIOD 1,  45.84, -75.65,  -5.00, 194.60
2,1, 1, 1, 0, 1, 0.00,10.00,Sunday
8,31054037.723029763
2,1, 1, 1, 0, 1,10.00,20.00,Sunday
8,30517742.45853056
2,1, 1, 1, 0, 1,20.00,30.00,Sunday
8,29096548.536442623
2,1, 1, 1, 0, 1,30.00,40.00,Sunday
8,27576402.483823117
2,1, 1, 1, 0, 1,40.00,50.00,Sunday
8,24824546.439465284
2,1, 1, 1, 0, 1,50.00,60.00,Sunday
8,21654800.677643567
2,1, 1, 1, 0, 2, 0.00,10.00,Sunday
8,23548584.981449537
2,1, 1, 1, 0, 2,10.00,20.00,Sunday
8,24567357.281531394
2,1, 1, 1, 0, 2,20.00,30.00,Sunday
8,24923142.84086216
2,1, 1, 1, 0, 2,30.00,40.00,Sunday
8,25078723.68501337
2,1, 1, 1, 0, 2,40.00,50.00,Sunday
8,25418057.394969948
2,1, 1, 1, 0, 2,50.00,60.00,Sunday
8,25978457.475634504
2,1, 1, 1, 0, 3, 0.00,10.00,Sunday
8,26742615.386848878
2,1, 1, 1, 0, 3,10.00,20.00,Sunday
8,26786085.142353274
2,1, 1, 1, 0, 3,20.00,30.00,Sunday
8,27070897.993429396
2,1, 1, 1, 0, 3,30.00,40.00,Sunday
8,27556791.195418894
2,1, 1, 1, 0, 3,40.00,50.00,Sunday
8,27962986.152441293
2,1, 1, 1, 0, 3,50.00,60.00,Sunday
8,27871464.25215619
2,1, 1, 1, 0, 4, 0.00,10.00,Sunday
8,28372735.73026535
2,1, 1, 1, 0, 4,10.00,20.00,Sunday
8,28793170.321106058
2,1, 1, 1, 0, 4,20.00,30.00,Sunday
8,29197896.296406433
2,1, 1, 1, 0, 4,30.00,40.00,Sunday
8,28999090.75480565
2,1, 1, 1, 0, 4,40.00,50.00,Sunday
8,29173040.420300286
2,1, 1, 1, 0, 4,50.00,60.00,Sunday
8,29489333.94520172
2,1, 1, 1, 0, 5, 0.00,10.00,Sunday
8,30209917.231705293
2,1, 1, 1, 0, 5,10.00,20.00,Sunday
8,30187944.297134414
2,1, 1, 1, 0, 5,20.00,30.00,Sunday
8,30554847.04529725
2,1, 1, 1, 0, 5,30.00,40.00,Sunday
8,31048403.00490944
2,1, 1, 1, 0, 5,40.00,50.00,Sunday
8,31696405.934866264
2,1, 1, 1, 0, 5,50.00,60.00,Sunday
8,31626839.500035606
2,1, 1, 1, 0, 6, 0.00,10.00,Sunday
8,31556825.429969087
2,1, 1, 1, 0, 6,10.00,20.00,Sunday
8,31683697.468842227
2,1, 1, 1, 0, 6,20.00,30.00,Sunday
8,32026740.155721355
2,1, 1, 1, 0, 6,30.00,40.00,Sunday
8,31626350.79898174
2,1, 1, 1, 0, 6,40.00,50.00,Sunday
8,31667528.320774328
2,1, 1, 1, 0, 6,50.00,60.00,Sunday
8,31822396.928886212
2,1, 1, 1, 0, 7, 0.00,10.00,Sunday
8,32391837.321165543
2,1, 1, 1, 0, 7,10.00,20.00,Sunday
8,32117595.730981767
2,1, 1, 1, 0, 7,20.00,30.00,Sunday
8,32271555.98521311
2,1, 1, 1, 0, 7,30.00,40.00,Sunday
8,32525169.3747454
2,1, 1, 1, 0, 7,40.00,50.00,Sunday
8,33016034.912007798
2,1, 1, 1, 0, 7,50.00,60.00,Sunday
8,32709646.55513329
2,1, 1, 1, 0, 8, 0.00,10.00,Sunday
8,32601044.382037543
2,1, 1, 1, 0, 8,10.00,20.00,Sunday
8,32637253.594811086
2,1, 1, 1, 0, 8,20.00,30.00,Sunday
8,32941370.027555816
2,1, 1, 1, 0, 8,30.00,40.00,Sunday
8,32442349.422791954
2,1, 1, 1, 0, 8,40.00,50.00,Sunday
8,32401353.98441415
2,1, 1, 1, 0, 8,50.00,60.00,Sunday
8,31764224.989824805
2,1, 1, 1, 0, 9, 0.00,10.00,Sunday
8,31335104.440693665
2,1, 1, 1, 0, 9,10.00,20.00,Sunday
8,30238948.410340853
2,1, 1, 1, 0, 9,20.00,30.00,Sunday
8,29550219.992529854
2,1, 1, 1, 0, 9,30.00,40.00,Sunday
8,29220466.612162866
2,1, 1, 1, 0, 9,40.00,50.00,Sunday
8,29244887.6428858
2,1, 1, 1, 0, 9,50.00,60.00,Sunday
8,28506307.10599217
2,1, 1, 1, 0,10, 0.00,10.00,Sunday
8,70608750.2392818
2,1, 1, 1, 0,10,10.00,20.00,Sunday
8,39456443.24626838
2,1, 1, 1, 0,10,20.00,30.00,Sunday
8,45562966.332190126
2,1, 1, 1, 0,10,30.00,40.00,Sunday
8,38170170.92451005
2,1, 1, 1, 0,10,40.00,50.00,Sunday
8,37335557.86631558
2,1, 1, 1, 0,10,50.00,60.00,Sunday
8,37418264.16696452
2,1, 1, 1, 0,11, 0.00,10.00,Sunday
8,77812263.75627264
2,1, 1, 1, 0,11,10.00,20.00,Sunday
8,61198170.578147836
2,1, 1, 1, 0,11,20.00,30.00,Sunday
8,47809797.72558804
2,1, 1, 1, 0,11,30.00,40.00,Sunday
8,53076968.0434963
2,1, 1, 1, 0,11,40.00,50.00,Sunday
8,49920150.11161532
2,1, 1, 1, 0,11,50.00,60.00,Sunday
8,50302434.180195175
2,1, 1, 1, 0,12, 0.00,10.00,Sunday
8,103622134.84752168
2,1, 1, 1, 0,12,10.00,20.00,Sunday
8,103038366.28059155
2,1, 1, 1, 0,12,20.00,30.00,Sunday
8,103067064.9875458
2,1, 1, 1, 0,12,30.00,40.00,Sunday
8,102533944.25666584
2,1, 1, 1, 0,12,40.00,50.00,Sunday
8,103478852.8467908
2,1, 1, 1, 0,12,50.00,60.00,Sunday
8,103847778.6610337
2,1, 1, 1, 0,13, 0.00,10.00,Sunday
8,101609186.53683768
2,1, 1, 1, 0,13,10.00,20.00,Sunday
8,101519047.28913908
2,1, 1, 1, 0,13,20.00,30.00,Sunday
8,101714090.39789058
2,1, 1, 1, 0,13,30.00,40.00,Sunday
8,101877933.53412543
2,1, 1, 1, 0,13,40.00,50.00,Sunday
8,102238664.15245691
2,1, 1, 1, 0,13,50.00,60.00,Sunday
8,102334065.84825093
2,1, 1, 1, 0,14, 0.00,10.00,Sunday
8,101314510.76114546
2,1, 1, 1, 0,14,10.00,20.00,Sunday
8,100211016.24342702
2,1, 1, 1, 0,14,20.00,30.00,Sunday
8,99778118.27392207
2,1, 1, 1, 0,14,30.00,40.00,Sunday
8,100143491.96478638
2,1, 1, 1, 0,14,40.00,50.00,Sunday
8,99226221.66093807
2,1, 1, 1, 0,14,50.00,60.00,Sunday
8,99033807.68705344
2,1, 1, 1, 0,15, 0.00,10.00,Sunday
8,99108971.49290374
2,1, 1, 1, 0,15,10.00,20.00,Sunday
8,98445185.99169423
2,1, 1, 1, 0,15,20.00,30.00,Sunday
8,98579136.89229818
2,1, 1, 1, 0,15,30.00,40.00,Sunday
8,99214252.00161491
2,1, 1, 1, 0,15,40.00,50.00,Sunday
8,98865761.49801485
2,1, 1, 1, 0,15,50.00,60.00,Sunday
8,99269407.32971875
2,1, 1, 1, 0,16, 0.00,10.00,Sunday
8,99615453.3207899
2,1, 1, 1, 0,16,10.00,20.00,Sunday
8,99924209.56026193
2,1, 1, 1, 0,16,20.00,30.00,Sunday
8,100209723.0950095
2,1, 1, 1, 0,16,30.00,40.00,Sunday
8,100317856.56260826
2,1, 1, 1, 0,16,40.00,50.00,Sunday
8,100290491.88900845
2,1, 1, 1, 0,16,50.00,60.00,Sunday
8,100358853.06789112
2,1, 1, 1, 0,17, 0.00,10.00,Sunday
8,100835750.20207748
2,1, 1, 1, 0,17,10.00,20.00,Sunday
8,101193235.3280627
2,1, 1, 1, 0,17,20.00,30.00,Sunday
8,101479505.6196595
2,1, 1, 1, 0,17,30.00,40.00,Sunday
8,101878491.86495103
2,1, 1, 1, 0,17,40.00,50.00,Sunday
8,102118746.9906342
2,1, 1, 1, 0,17,50.00,60.00,Sunday
8,102303007.43004642
2,1, 1, 1, 0,18, 0.00,10.00,Sunday
8,102448138.49872649
2,1, 1, 1, 0,18,10.00,20.00,Sunday
8,102523788.69889522
2,1, 1, 1, 0,18,20.00,30.00,Sunday
8,102111485.03442916
2,1, 1, 1, 0,18,30.00,40.00,Sunday
8,102244263.22017488
2,1, 1, 1, 0,18,40.00,50.00,Sunday
8,102562627.2314156
2,1, 1, 1, 0,18,50.00,60.00,Sunday
8,102566677.77553733
2,1, 1, 1, 0,19, 0.00,10.00,Sunday
8,98907305.69929962
2,1, 1, 1, 0,19,10.00,20.00,Sunday
8,98968142.59007509
2,1, 1, 1, 0,19,20.00,30.00,Sunday
8,99232520.40435004
2,1, 1, 1, 0,19,30.00,40.00,Sunday
8,98480265.50907695
2,1, 1, 1, 0,19,40.00,50.00,Sunday
8,98782413.23774149
2,1, 1, 1, 0,19,50.00,60.00,Sunday
8,98624328.56994015
2,1, 1, 1, 0,20, 0.00,10.00,Sunday
8,9495247.498112965
2,1, 1, 1, 0,20,10.00,20.00,Sunday
8,10414048.813766414
2,1, 1, 1, 0,20,20.00,30.00,Sunday
8,12489331.397217724
2,1, 1, 1, 0,20,30.00,40.00,Sunday
8,14528037.731368117
2,1, 1, 1, 0,20,40.00,50.00,Sunday
8,20075018.04272155
2,1, 1, 1, 0,20,50.00,60.00,Sunday
8,33044931.189686816
2,1, 1, 1, 0,21, 0.00,10.00,Sunday
8,26976536.050976686
2,1, 1, 1, 0,21,10.00,20.00,Sunday
8,29777872.765209217
2,1, 1, 1, 0,21,20.00,30.00,Sunday
8,29955191.36392874
2,1, 1, 1, 0,21,30.00,40.00,Sunday
8,30071083.44739438
2,1, 1, 1, 0,21,40.00,50.00,Sunday
8,30083134.783939112
2,1, 1, 1, 0,21,50.00,60.00,Sunday
8,30588288.926608976
2,1, 1, 1, 0,22, 0.00,10.00,Sunday
8,31928171.220201924
2,1, 1, 1, 0,22,10.00,20.00,Sunday
8,32199963.153922495
2,1, 1, 1, 0,22,20.00,30.00,Sunday
8,32035180.801800214
2,1, 1, 1, 0,22,30.00,40.00,Sunday
8,32386246.518189985
2,1, 1, 1, 0,22,40.00,50.00,Sunday
8,31557401.164153438
2,1, 1, 1, 0,22,50.00,60.00,Sunday
8,31247443.14666688
2,1, 1, 1, 0,23, 0.00,10.00,Sunday
8,32593927.65693048
2,1, 1, 1, 0,23,10.00,20.00,Sunday
8,33582593.452189304
2,1, 1, 1, 0,23,20.00,30.00,Sunday
8,33269284.356856044
2,1, 1, 1, 0,23,30.00,40.00,Sunday
8,33489403.863023248
2,1, 1, 1, 0,23,40.00,50.00,Sunday
8,33679864.61770197
2,1, 1, 1, 0,23,50.00,60.00,Sunday
8,34409771.82397803
2,1, 1, 1, 0,24, 0.00,10.00,Sunday
8,34568042.47880966
2,1, 1, 1, 0,24,10.00,20.00,Sunday
8,34834938.78689462
2,1, 1, 1, 0,24,20.00,30.00,Sunday
8,35017115.79462088
2,1, 1, 1, 0,24,30.00,40.00,Sunday
8,35746979.170776114
2,1, 1, 1, 0,24,40.00,50.00,Sunday
8,35337126.521854244
2,1, 1, 1, 0,24,50.00,60.00,Sunday
8,35478387.97185375
2,2, 1, 2, 0, 1, 0.00,10.00,Monday
8,36242624.7671018
2,2, 1, 2, 0, 1,10.00,20.00,Monday
8,37405620.0264547
2,2, 1, 2, 0, 1,20.00,30.00,Monday
8,37419486.09431184
2,2, 1, 2, 0, 1,30.00,40.00,Monday
8,37997405.843337625
2,2, 1, 2, 0, 1,40.00,50.00,Monday
8,38576414.23987047
2,2, 1, 2, 0, 1,50.00,60.00,Monday
8,39720591.21478895
2,2, 1, 2, 0, 2, 0.00,10.00,Monday
8,39664945.01124364
2,2, 1, 2, 0, 2,10.00,20.00,Monday
8,40055605.54313165
2,2, 1, 2, 0, 2,20.00,30.00,Monday
8,40429485.079231404
2,2, 1, 2, 0, 2,30.00,40.00,Monday
8,41367502.02122166
2,2, 1, 2, 0, 2,40.00,50.00,Monday
8,41176300.95061471
2,2, 1, 2, 0, 2,50.00,60.00,Monday
8,41548993.965342924
2,2, 1, 2, 0, 3, 0.00,10.00,Monday
8,41967069.19480764
2,2, 1, 2, 0, 3,10.00,20.00,Monday
8,42840453.72564778
2,2, 1, 2, 0, 3,20.00,30.00,Monday
8,42566236.97617609
2,2, 1, 2, 0, 3,30.00,40.00,Monday
8,42854520.63021146
2,2, 1, 2, 0, 3,40.00,50.00,Monday
8,43141783.81284311
2,2, 1, 2, 0, 3,50.00,60.00,Monday
8,43956864.487757206
2,2, 1, 2, 0, 4, 0.00,10.00,Monday
8,43811884.792807385
2,2, 1, 2, 0, 4,10.00,20.00,Monday
8,44029906.06066785
2,2, 1, 2, 0, 4,20.00,30.00,Monday
8,44267946.13055137
2,2, 1, 2, 0, 4,30.00,40.00,Monday
8,44926645.62294513
2,2, 1, 2, 0, 4,40.00,50.00,Monday
8,44877494.55958818
2,2, 1, 2, 0, 4,50.00,60.00,Monday
8,44970279.96730373
2,2, 1, 2, 0, 5, 0.00,10.00,Monday
8,45267026.7239768
2,2, 1, 2, 0, 5,10.00,20.00,Monday
8,45865977.294805065
2,2, 1, 2, 0, 5,20.00,30.00,Monday
8,46008705.8559884
2,2, 1, 2, 0, 5,30.00,40.00,Monday
8,46038546.73329327
2,2, 1, 2, 0, 5,40.00,50.00,Monday
8,46289683.426475376
2,2, 1, 2, 0, 5,50.00,60.00,Monday
8,46810608.65363023
2,2, 1, 2, 0, 6, 0.00,10.00,Monday
8,46752288.41564187
2,2, 1, 2, 0, 6,10.00,20.00,Monday
8,46361401.363677345
2,2, 1, 2, 0, 6,20.00,30.00,Monday
8,46253773.29884991
2,2, 1, 2, 0, 6,30.00,40.00,Monday
8,46372518.15213207
2,2, 1, 2, 0, 6,40.00,50.00,Monday
8,46370278.106647305
2,2, 1, 2, 0, 6,50.00,60.00,Monday
8,45930633.57460099
2,2, 1, 2, 0, 7, 0.00,10.00,Monday
8,45725490.81425799
2,2, 1, 2, 0, 7,10.00,20.00,Monday
8,45628446.2870794
2,2, 1, 2, 0, 7,20.00,30.00,Monday
8,45489690.28422997
2,2, 1, 2, 0, 7,30.00,40.00,Monday
8,44811461.415600605
2,2, 1, 2, 0, 7,40.00,50.00,Monday
8,44492522.633996636
2,2, 1, 2, 0, 7,50.00,60.00,Monday
8,44340432.629891954
2,2, 1, 2, 0, 8, 0.00,10.00,Monday
8,99606838.48513071
2,2, 1, 2, 0, 8,10.00,20.00,Monday
8,36052412.72420378
2,2, 1, 2, 0, 8,20.00,30.00,Monday
8,70697703.96839409
2,2, 1, 2, 0, 8,30.00,40.00,Monday
8,63987053.33095265
2,2, 1, 2, 0, 8,40.00,50.00,Monday
8,62770236.92139773
2,2, 1, 2, 0, 8,50.00,60.00,Monday
8,61059048.0222362
2,2, 1, 2, 0, 9, 0.00,10.00,Monday
8,107693825.0576688
2,2, 1, 2, 0, 9,10.00,20.00,Monday
8,92159200.26782873
2,2, 1, 2, 0, 9,20.00,30.00,Monday
8,77778420.48761956
2,2, 1, 2, 0, 9,30.00,40.00,Monday
8,75905807.26202255
2,2, 1, 2, 0, 9,40.00,50.00,Monday
8,73786207.29155657
2,2, 1, 2, 0, 9,50.00,60.00,Monday
8,72676059.76126356
2,2, 1, 2, 0,10, 0.00,10.00,Monday
8,120468571.80920242
2,2, 1, 2, 0,10,10.00,20.00,Monday
8,118004358.88506526
2,2, 1, 2, 0,10,20.00,30.00,Monday
8,116713286.64968026
2,2, 1, 2, 0,10,30.00,40.00,Monday
8,116249866.39148456
2,2, 1, 2, 0,10,40.00,50.00,Monday
8,116027016.14658168
2,2, 1, 2, 0,10,50.00,60.00,Monday
8,116056444.61149679
2,2, 1, 2, 0,11, 0.00,10.00,Monday
8,113109192.66158013
2,2, 1, 2, 0,11,10.00,20.00,Monday
8,113546482.68664092
2,2, 1, 2, 0,11,20.00,30.00,Monday
8,114445942.00089267
2,2, 1, 2, 0,11,30.00,40.00,Monday
8,115117289.52696116
2,2, 1, 2, 0,11,40.00,50.00,Monday
8,115689676.05778594
2,2, 1, 2, 0,11,50.00,60.00,Monday
8,116245058.06942979
2,2, 1, 2, 0,12, 0.00,10.00,Monday
8,116144422.93593165
2,2, 1, 2, 0,12,10.00,20.00,Monday
8,116628591.79733598
2,2, 1, 2, 0,12,20.00,30.00,Monday
8,117215864.26519568
2,2, 1, 2, 0,12,30.00,40.00,Monday
8,117953197.05710159
2,2, 1, 2, 0,12,40.00,50.00,Monday
8,118752928.77960144
2,2, 1, 2, 0,12,50.00,60.00,Monday
8,119700657.19825257
2,2, 1, 2, 0,13, 0.00,10.00,Monday
8,120673063.75299905
2,2, 1, 2, 0,13,10.00,20.00,Monday
8,121410598.78293224
2,2, 1, 2, 0,13,20.00,30.00,Monday
8,122301014.16133057
2,2, 1, 2, 0,13,30.00,40.00,Monday
8,123143307.55950734
2,2, 1, 2, 0,13,40.00,50.00,Monday
8,123974421.44558401
2,2, 1, 2, 0,13,50.00,60.00,Monday
8,124803254.57952775
2,2, 1, 2, 0,14, 0.00,10.00,Monday
8,125529491.7930875
2,2, 1, 2, 0,14,10.00,20.00,Monday
8,126182759.50539191
2,2, 1, 2, 0,14,20.00,30.00,Monday
8,126847897.56585024
2,2, 1, 2, 0,14,30.00,40.00,Monday
8,127500875.72197978
2,2, 1, 2, 0,14,40.00,50.00,Monday
8,128069764.7571553
2,2, 1, 2, 0,14,50.00,60.00,Monday
8,128697233.43426335
2,2, 1, 2, 0,15, 0.00,10.00,Monday
8,129152611.17427666
2,2, 1, 2, 0,15,10.00,20.00,Monday
8,129663863.98119144
2,2, 1, 2, 0,15,20.00,30.00,Monday
8,130177008.36679317
2,2, 1, 2, 0,15,30.00,40.00,Monday
8,130854418.39546403
2,2, 1, 2, 0,15,40.00,50.00,Monday
8,131594664.49222259
2,2, 1, 2, 0,15,50.00,60.00,Monday
8,132369672.50259347
2,2, 1, 2, 0,16, 0.00,10.00,Monday
8,133361755.15997761
2,2, 1, 2, 0,16,10.00,20.00,Monday
8,134202353.86940615
2,2, 1, 2, 0,16,20.00,30.00,Monday
8,135045226.58367285
2,2, 1, 2, 0,16,30.00,40.00,Monday
8,135770166.6814958
2,2, 1, 2, 0,16,40.00,50.00,Monday
8,136448923.29166418
2,2, 1, 2, 0,16,50.00,60.00,Monday
8,137110954.41880608
2,2, 1, 2, 0,17, 0.00,10.00,Monday
8,137808414.51524082
2,2, 1, 2, 0,17,10.00,20.00,Monday
8,138262264.86957285
2,2, 1, 2, 0,17,20.00,30.00,Monday
8,138606021.52759144
2,2, 1, 2, 0,17,30.00,40.00,Monday
8,138865913.36565942
2,2, 1, 2, 0,17,40.00,50.00,Monday
8,139075140.79459113
2,2, 1, 2, 0,17,50.00,60.00,Monday
8,138684931.96297994
2,2, 1, 2, 0,18, 0.00,10.00,Monday
8,139226495.3427682
2,2, 1, 2, 0,18,10.00,20.00,Monday
8,139667123.88566357
2,2, 1, 2, 0,18,20.00,30.00,Monday
8,139938320.44766805
2,2, 1, 2, 0,18,30.00,40.00,Monday
8,140172168.7075962
2,2, 1, 2, 0,18,40.00,50.00,Monday
8,140393781.45542866
2,2, 1, 2, 0,18,50.00,60.00,Monday
8,140605246.74481213
2,2, 1, 2, 0,19, 0.00,10.00,Monday
8,141394687.6439882
2,2, 1, 2, 0,19,10.00,20.00,Monday
8,142140660.60215026
2,2, 1, 2, 0,19,20.00,30.00,Monday
8,142423304.20433953
2,2, 1, 2, 0,19,30.00,40.00,Monday
8,143350551.3469878
2,2, 1, 2, 0,19,40.00,50.00,Monday
8,144208078.7943218
2,2, 1, 2, 0,19,50.00,60.00,Monday
8,144850456.3682662
2,2, 1, 2, 0,20, 0.00,10.00,Monday
8,120677078.93460415
2,2, 1, 2, 0,20,10.00,20.00,Monday
8,125416942.88454357
2,2, 1, 2, 0,20,20.00,30.00,Monday
8,129804510.77782364
2,2, 1, 2, 0,20,30.00,40.00,Monday
8,132548777.26829688
2,2, 1, 2, 0,20,40.00,50.00,Monday
8,133886484.57224733
2,2, 1, 2, 0,20,50.00,60.00,Monday
8,135175051.96632618
2,2, 1, 2, 0,21, 0.00,10.00,Monday
8,136014682.39188856
2,2, 1, 2, 0,21,10.00,20.00,Monday
8,138022840.1077126
2,2, 1, 2, 0,21,20.00,30.00,Monday
8,138738849.2422853
2,2, 1, 2, 0,21,30.00,40.00,Monday
8,139422231.88787675
2,2, 1, 2, 0,21,40.00,50.00,Monday
8,140643952.82819843
2,2, 1, 2, 0,21,50.00,60.00,Monday
8,140840408.18123832
2,2, 1, 2, 0,22, 0.00,10.00,Monday
8,16129334.944537802
2,2, 1, 2, 0,22,10.00,20.00,Monday
8,20010719.84440802
2,2, 1, 2, 0,22,20.00,30.00,Monday
8,30050639.007798377
2,2, 1, 2, 0,22,30.00,40.00,Monday
8,38361871.0572603
2,2, 1, 2, 0,22,40.00,50.00,Monday
8,48581944.65391023
2,2, 1, 2, 0,22,50.00,60.00,Monday
8,50133691.39930939
2,2, 1, 2, 0,23, 0.00,10.00,Monday
8,54486498.34182015
2,2, 1, 2, 0,23,10.00,20.00,Monday
8,56860219.020065986
2,2, 1, 2, 0,23,20.00,30.00,Monday
8,58152002.82789432
2,2, 1, 2, 0,23,30.00,40.00,Monday
8,58260496.98478224
2,2, 1, 2, 0,23,40.00,50.00,Monday
8,58786676.89063255
2,2, 1, 2, 0,23,50.00,60.00,Monday
8,59212475.734330915
2,2, 1, 2, 0,24, 0.00,10.00,Monday
8,62498676.61871076
2,2, 1, 2, 0,24,10.00,20.00,Monday
8,62558210.994255945
2,2, 1, 2, 0,24,20.00,30.00,Monday
8,62720758.749742515
2,2, 1, 2, 0,24,30.00,40.00,Monday
8,62821392.49220348
2,2, 1, 2, 0,24,40.00,50.00,Monday
8,63401070.62142509
2,2, 1, 2, 0,24,50.00,60.00,Monday
8,62822552.34971596
2,3, 1, 3, 0, 1, 0.00,10.00,Tuesday
8,63974724.23311115
2,3, 1, 3, 0, 1,10.00,20.00,Tuesday
8,64110962.82169196
2,3, 1, 3, 0, 1,20.00,30.00,Tuesday
8,64512895.79145889
2,3, 1, 3, 0, 1,30.00,40.00,Tuesday
8,63873643.13673481
2,3, 1, 3, 0, 1,40.00,50.00,Tuesday
8,63721686.66927477
2,3, 1, 3, 0, 1,50.00,60.00,Tuesday
8,63609094.47904885
2,3, 1, 3, 0, 2, 0.00,10.00,Tuesday
8,64959442.97602164
2,3, 1, 3, 0, 2,10.00,20.00,Tuesday
8,64966713.740520306
2,3, 1, 3, 0, 2,20.00,30.00,Tuesday
8,65397723.93239701
2,3, 1, 3, 0, 2,30.00,40.00,Tuesday
8,65907690.01535267
2,3, 1, 3, 0, 2,40.00,50.00,Tuesday
8,66703994.35368466
2,3, 1, 3, 0, 2,50.00,60.00,Tuesday
8,66642111.458859526
2,3, 1, 3, 0, 3, 0.00,10.00,Tuesday
8,67329055.78700647
2,3, 1, 3, 0, 3,10.00,20.00,Tuesday
8,67806959.58632147
2,3, 1, 3, 0, 3,20.00,30.00,Tuesday
8,68480355.6180979
2,3, 1, 3, 0, 3,30.00,40.00,Tuesday
8,68341051.03879327
2,3, 1, 3, 0, 3,40.00,50.00,Tuesday
8,68646025.56672783
2,3, 1, 3, 0, 3,50.00,60.00,Tuesday
8,69058480.59237646
2,3, 1, 3, 0, 4, 0.00,10.00,Tuesday
8,69983093.59653755
2,3, 1, 3, 0, 4,10.00,20.00,Tuesday
8,69952254.22576527
2,3, 1, 3, 0, 4,20.00,30.00,Tuesday
8,70331892.16803569
2,3, 1, 3, 0, 4,30.00,40.00,Tuesday
8,70827462.50271277
2,3, 1, 3, 0, 4,40.00,50.00,Tuesday
8,71508925.55048147
2,3, 1, 3, 0, 4,50.00,60.00,Tuesday
8,71440491.24423207
2,3, 1, 3, 0, 5, 0.00,10.00,Tuesday
8,71324496.31296529
2,3, 1, 3, 0, 5,10.00,20.00,Tuesday
8,71250308.21780449
2,3, 1, 3, 0, 5,20.00,30.00,Tuesday
8,71337605.1785158
2,3, 1, 3, 0, 5,30.00,40.00,Tuesday
8,70692685.35789147
2,3, 1, 3, 0, 5,40.00,50.00,Tuesday
8,70473268.31290938
2,3, 1, 3, 0, 5,50.00,60.00,Tuesday
8,70382026.20720199
2,3, 1, 3, 0, 6, 0.00,10.00,Tuesday
8,70688168.53996018
2,3, 1, 3, 0, 6,10.00,20.00,Tuesday
8,70184714.3651593
2,3, 1, 3, 0, 6,20.00,30.00,Tuesday
8,70093555.76477288
2,3, 1, 3, 0, 6,30.00,40.00,Tuesday
8,70135224.96920368
2,3, 1, 3, 0, 6,40.00,50.00,Tuesday
8,70329133.72356105
2,3, 1, 3, 0, 6,50.00,60.00,Tuesday
8,69811412.64394179
2,3, 1, 3, 0, 7, 0.00,10.00,Tuesday
8,70326726.5835739
2,3, 1, 3, 0, 7,10.00,20.00,Tuesday
8,70831128.46769293
2,3, 1, 3, 0, 7,20.00,30.00,Tuesday
8,71460716.48978086
2,3, 1, 3, 0, 7,30.00,40.00,Tuesday
8,71383171.80392027
2,3, 1, 3, 0, 7,40.00,50.00,Tuesday
8,71722826.74226435
2,3, 1, 3, 0, 7,50.00,60.00,Tuesday
8,72197702.83522174
2,3, 1, 3, 0, 8, 0.00,10.00,Tuesday
8,131727117.33824912
2,3, 1, 3, 0, 8,10.00,20.00,Tuesday
8,100557286.04265158
2,3, 1, 3, 0, 8,20.00,30.00,Tuesday
8,103240805.20439127
2,3, 1, 3, 0, 8,30.00,40.00,Tuesday
8,98910408.90280823
2,3, 1, 3, 0, 8,40.00,50.00,Tuesday
8,98036261.4778191
2,3, 1, 3, 0, 8,50.00,60.00,Tuesday
8,96591945.94212149
2,3, 1, 3, 0, 9, 0.00,10.00,Tuesday
8,131650590.36921835
2,3, 1, 3, 0, 9,10.00,20.00,Tuesday
8,136282423.00242925
2,3, 1, 3, 0, 9,20.00,30.00,Tuesday
8,101747498.06571425
2,3, 1, 3, 0, 9,30.00,40.00,Tuesday
8,114026900.15712605
2,3, 1, 3, 0, 9,40.00,50.00,Tuesday
8,109395160.25498313
2,3, 1, 3, 0, 9,50.00,60.00,Tuesday
8,108276002.68490787
2,3, 1, 3, 0,10, 0.00,10.00,Tuesday
8,194864488.58040434
2,3, 1, 3, 0,10,10.00,20.00,Tuesday
8,191836525.9626887
2,3, 1, 3, 0,10,20.00,30.00,Tuesday
8,190220963.09723088
2,3, 1, 3, 0,10,30.00,40.00,Tuesday
8,189181265.7415755
2,3, 1, 3, 0,10,40.00,50.00,Tuesday
8,188277774.4275239
2,3, 1, 3, 0,10,50.00,60.00,Tuesday
8,187483918.54618326
2,3, 1, 3, 0,11, 0.00,10.00,Tuesday
8,181043458.65757143
2,3, 1, 3, 0,11,10.00,20.00,Tuesday
8,179700925.4409217
2,3, 1, 3, 0,11,20.00,30.00,Tuesday
8,178844045.35857335
2,3, 1, 3, 0,11,30.00,40.00,Tuesday
8,178298218.83938697
2,3, 1, 3, 0,11,40.00,50.00,Tuesday
8,177795109.90923437
2,3, 1, 3, 0,11,50.00,60.00,Tuesday
8,177450203.68635303
2,3, 1, 3, 0,12, 0.00,10.00,Tuesday
8,172625633.1753266
2,3, 1, 3, 0,12,10.00,20.00,Tuesday
8,171309140.94371468
2,3, 1, 3, 0,12,20.00,30.00,Tuesday
8,170362846.05169418
2,3, 1, 3, 0,12,30.00,40.00,Tuesday
8,169553928.02746224
2,3, 1, 3, 0,12,40.00,50.00,Tuesday
8,168814960.03351477
2,3, 1, 3, 0,12,50.00,60.00,Tuesday
8,168176365.54066375
2,3, 1, 3, 0,13, 0.00,10.00,Tuesday
8,165186726.63508207
2,3, 1, 3, 0,13,10.00,20.00,Tuesday
8,163681968.38299742
2,3, 1, 3, 0,13,20.00,30.00,Tuesday
8,162431723.68200314
2,3, 1, 3, 0,13,30.00,40.00,Tuesday
8,161277075.66787472
2,3, 1, 3, 0,13,40.00,50.00,Tuesday
8,160183211.63186017
2,3, 1, 3, 0,13,50.00,60.00,Tuesday
8,159129262.96571898
2,3, 1, 3, 0,14, 0.00,10.00,Tuesday
8,158066943.40518054
2,3, 1, 3, 0,14,10.00,20.00,Tuesday
8,157123906.26102158
2,3, 1, 3, 0,14,20.00,30.00,Tuesday
8,156220127.97812796
2,3, 1, 3, 0,14,30.00,40.00,Tuesday
8,155349573.63291755
2,3, 1, 3, 0,14,40.00,50.00,Tuesday
8,154502671.28132594
2,3, 1, 3, 0,14,50.00,60.00,Tuesday
8,153676168.71271634
2,3, 1, 3, 0,15, 0.00,10.00,Tuesday
8,153774299.55812892
2,3, 1, 3, 0,15,10.00,20.00,Tuesday
8,152789571.07304424
2,3, 1, 3, 0,15,20.00,30.00,Tuesday
8,151757132.6851048
2,3, 1, 3, 0,15,30.00,40.00,Tuesday
8,150784563.702181
2,3, 1, 3, 0,15,40.00,50.00,Tuesday
8,149835688.74393135
2,3, 1, 3, 0,15,50.00,60.00,Tuesday
8,148935281.95261952
2,3, 1, 3, 0,16, 0.00,10.00,Tuesday
8,150966207.71879265
2,3, 1, 3, 0,16,10.00,20.00,Tuesday
8,151170055.10298726
2,3, 1, 3, 0,16,20.00,30.00,Tuesday
8,151228590.5635811
2,3, 1, 3, 0,16,30.00,40.00,Tuesday
8,151567205.9230992
2,3, 1, 3, 0,16,40.00,50.00,Tuesday
8,152033839.42285478
2,3, 1, 3, 0,16,50.00,60.00,Tuesday
8,152597297.40494046
2,3, 1, 3, 0,17, 0.00,10.00,Tuesday
8,154619137.12966233
2,3, 1, 3, 0,17,10.00,20.00,Tuesday
8,155154901.68592536
2,3, 1, 3, 0,17,20.00,30.00,Tuesday
8,155380189.89930898
2,3, 1, 3, 0,17,30.00,40.00,Tuesday
8,155045765.8533497
2,3, 1, 3, 0,17,40.00,50.00,Tuesday
8,154452585.63710997
2,3, 1, 3, 0,17,50.00,60.00,Tuesday
8,153119490.42336202
2,3, 1, 3, 0,18, 0.00,10.00,Tuesday
8,154512439.38264972
2,3, 1, 3, 0,18,10.00,20.00,Tuesday
8,154688692.41880548
2,3, 1, 3, 0,18,20.00,30.00,Tuesday
8,154430434.6902072
2,3, 1, 3, 0,18,30.00,40.00,Tuesday
8,154095308.66477597
2,3, 1, 3, 0,18,40.00,50.00,Tuesday
8,153684911.48538923
2,3, 1, 3, 0,18,50.00,60.00,Tuesday
8,153217737.39297715
2,3, 1, 3, 0,19, 0.00,10.00,Tuesday
8,153190823.53281972
2,3, 1, 3, 0,19,10.00,20.00,Tuesday
8,152495941.71385673
2,3, 1, 3, 0,19,20.00,30.00,Tuesday
8,151378478.38145885
2,3, 1, 3, 0,19,30.00,40.00,Tuesday
8,150889213.20140582
2,3, 1, 3, 0,19,40.00,50.00,Tuesday
8,150154195.77406883
2,3, 1, 3, 0,19,50.00,60.00,Tuesday
8,149264061.16025725
2,3, 1, 3, 0,20, 0.00,10.00,Tuesday
8,125858661.16313274
2,3, 1, 3, 0,20,10.00,20.00,Tuesday
8,126431940.99647985
2,3, 1, 3, 0,20,20.00,30.00,Tuesday
8,128497306.6872667
2,3, 1, 3, 0,20,30.00,40.00,Tuesday
8,129406075.35238647
2,3, 1, 3, 0,20,40.00,50.00,Tuesday
8,131508648.74903633
2,3, 1, 3, 0,20,50.00,60.00,Tuesday
8,131221466.70669666
2,3, 1, 3, 0,21, 0.00,10.00,Tuesday
8,132992183.88734107
2,3, 1, 3, 0,21,10.00,20.00,Tuesday
8,135647747.11066195
2,3, 1, 3, 0,21,20.00,30.00,Tuesday
8,136903646.01398182
2,3, 1, 3, 0,21,30.00,40.00,Tuesday
8,138481617.31748617
2,3, 1, 3, 0,21,40.00,50.00,Tuesday
8,140218227.63632244
2,3, 1, 3, 0,21,50.00,60.00,Tuesday
8,140956215.20360065
2,3, 1, 3, 0,22, 0.00,10.00,Tuesday
8,11156976.081974749
2,3, 1, 3, 0,22,10.00,20.00,Tuesday
8,13355387.998763802
2,3, 1, 3, 0,22,20.00,30.00,Tuesday
8,16682138.336418634
2,3, 1, 3, 0,22,30.00,40.00,Tuesday
8,25317855.535063665
2,3, 1, 3, 0,22,40.00,50.00,Tuesday
8,43877613.11284966
2,3, 1, 3, 0,22,50.00,60.00,Tuesday
8,32533702.282606237
2,3, 1, 3, 0,23, 0.00,10.00,Tuesday
8,40170294.8490228
2,3, 1, 3, 0,23,10.00,20.00,Tuesday
8,43441847.456280105
2,3, 1, 3, 0,23,20.00,30.00,Tuesday
8,45364122.91669053
2,3, 1, 3, 0,23,30.00,40.00,Tuesday
8,46082830.49623708
2,3, 1, 3, 0,23,40.00,50.00,Tuesday
8,47209923.73950871
2,3, 1, 3, 0,23,50.00,60.00,Tuesday
8,48232296.457723506
2,3, 1, 3, 0,24, 0.00,10.00,Tuesday
8,51700762.3437145
2,3, 1, 3, 0,24,10.00,20.00,Tuesday
8,51712038.830549136
2,3, 1, 3, 0,24,20.00,30.00,Tuesday
8,51809255.42353284
2,3, 1, 3, 0,24,30.00,40.00,Tuesday
8,51834174.268190674
2,3, 1, 3, 0,24,40.00,50.00,Tuesday
8,52332445.16803171
2,3, 1, 3, 0,24,50.00,60.00,Tuesday
8,51660812.580291845
2,4, 1, 4, 0, 1, 0.00,10.00,Wednesday
8,52299169.91604937
2,4, 1, 4, 0, 1,10.00,20.00,Wednesday
8,51897570.21486985
2,4, 1, 4, 0, 1,20.00,30.00,Wednesday
8,51867073.23628398
2,4, 1, 4, 0, 1,30.00,40.00,Wednesday
8,50691488.07973839
2,4, 1, 4, 0, 1,40.00,50.00,Wednesday
8,50034476.83670546
2,4, 1, 4, 0, 1,50.00,60.00,Wednesday
8,49349356.76192317
2,4, 1, 4, 0, 2, 0.00,10.00,Wednesday
8,50153503.243245296
2,4, 1, 4, 0, 2,10.00,20.00,Wednesday
8,49345516.60738813
2,4, 1, 4, 0, 2,20.00,30.00,Wednesday
8,49006804.44159684
2,4, 1, 4, 0, 2,30.00,40.00,Wednesday
8,48651400.13422274
2,4, 1, 4, 0, 2,40.00,50.00,Wednesday
8,48835663.10997309
2,4, 1, 4, 0, 2,50.00,60.00,Wednesday
8,47897246.05336428
2,4, 1, 4, 0, 3, 0.00,10.00,Wednesday
8,48189303.185469724
2,4, 1, 4, 0, 3,10.00,20.00,Wednesday
8,48244614.77175302
2,4, 1, 4, 0, 3,20.00,30.00,Wednesday
8,48813053.19268
2,4, 1, 4, 0, 3,30.00,40.00,Wednesday
8,48260947.06333998
2,4, 1, 4, 0, 3,40.00,50.00,Wednesday
8,48256343.65973969
2,4, 1, 4, 0, 3,50.00,60.00,Wednesday
8,48246382.82881285
2,4, 1, 4, 0, 4, 0.00,10.00,Wednesday
8,49424317.691146806
2,4, 1, 4, 0, 4,10.00,20.00,Wednesday
8,49443749.85883132
2,4, 1, 4, 0, 4,20.00,30.00,Wednesday
8,50018861.7214327
2,4, 1, 4, 0, 4,30.00,40.00,Wednesday
8,50599125.1216522
2,4, 1, 4, 0, 4,40.00,50.00,Wednesday
8,51737479.794836015
2,4, 1, 4, 0, 4,50.00,60.00,Wednesday
8,51766855.01702919
2,4, 1, 4, 0, 5, 0.00,10.00,Wednesday
8,52367008.90425959
2,4, 1, 4, 0, 5,10.00,20.00,Wednesday
8,52847014.31463816
2,4, 1, 4, 0, 5,20.00,30.00,Wednesday
8,53858265.63010664
2,4, 1, 4, 0, 5,30.00,40.00,Wednesday
8,53751947.47711526
2,4, 1, 4, 0, 5,40.00,50.00,Wednesday
8,54194343.450131975
2,4, 1, 4, 0, 5,50.00,60.00,Wednesday
8,54633497.499275155
2,4, 1, 4, 0, 6, 0.00,10.00,Wednesday
8,55253894.72573659
2,4, 1, 4, 0, 6,10.00,20.00,Wednesday
8,54718184.749302596
2,4, 1, 4, 0, 6,20.00,30.00,Wednesday
8,54732656.869935006
2,4, 1, 4, 0, 6,30.00,40.00,Wednesday
8,54747449.788766496
2,4, 1, 4, 0, 6,40.00,50.00,Wednesday
8,55316676.36034297
2,4, 1, 4, 0, 6,50.00,60.00,Wednesday
8,54774413.21727088
2,4, 1, 4, 0, 7, 0.00,10.00,Wednesday
8,55247858.02110098
2,4, 1, 4, 0, 7,10.00,20.00,Wednesday
8,55649982.31390957
2,4, 1, 4, 0, 7,20.00,30.00,Wednesday
8,56590691.03139773
2,4, 1, 4, 0, 7,30.00,40.00,Wednesday
8,56414687.13266525
2,4, 1, 4, 0, 7,40.00,50.00,Wednesday
8,56788628.10852603
2,4, 1, 4, 0, 7,50.00,60.00,Wednesday
8,57158091.502442084
2,4, 1, 4, 0, 8, 0.00,10.00,Wednesday
8,117322038.17523105
2,4, 1, 4, 0, 8,10.00,20.00,Wednesday
8,85579553.4733876
2,4, 1, 4, 0, 8,20.00,30.00,Wednesday
8,89149594.30959214
2,4, 1, 4, 0, 8,30.00,40.00,Wednesday
8,84279772.00016506
2,4, 1, 4, 0, 8,40.00,50.00,Wednesday
8,83674177.68798348
2,4, 1, 4, 0, 8,50.00,60.00,Wednesday
8,82310876.63851056
2,4, 1, 4, 0, 9, 0.00,10.00,Wednesday
8,126347947.97679015
2,4, 1, 4, 0, 9,10.00,20.00,Wednesday
8,117130125.28817151
2,4, 1, 4, 0, 9,20.00,30.00,Wednesday
8,95347263.06884453
2,4, 1, 4, 0, 9,30.00,40.00,Wednesday
8,97320586.1694959
2,4, 1, 4, 0, 9,40.00,50.00,Wednesday
8,95769302.30374281
2,4, 1, 4, 0, 9,50.00,60.00,Wednesday
8,94901557.29191382
2,4, 1, 4, 0,10, 0.00,10.00,Wednesday
8,181982128.9913452
2,4, 1, 4, 0,10,10.00,20.00,Wednesday
8,179136926.84931195
2,4, 1, 4, 0,10,20.00,30.00,Wednesday
8,177715619.90691105
2,4, 1, 4, 0,10,30.00,40.00,Wednesday
8,176939828.24847707
2,4, 1, 4, 0,10,40.00,50.00,Wednesday
8,176182236.34490973
2,4, 1, 4, 0,10,50.00,60.00,Wednesday
8,175613469.02070665
2,4, 1, 4, 0,11, 0.00,10.00,Wednesday
8,170273674.23146498
2,4, 1, 4, 0,11,10.00,20.00,Wednesday
8,168773557.72305238
2,4, 1, 4, 0,11,20.00,30.00,Wednesday
8,167814991.6755286
2,4, 1, 4, 0,11,30.00,40.00,Wednesday
8,166758241.3976011
2,4, 1, 4, 0,11,40.00,50.00,Wednesday
8,165670520.3137023
2,4, 1, 4, 0,11,50.00,60.00,Wednesday
8,164702981.91565093
2,4, 1, 4, 0,12, 0.00,10.00,Wednesday
8,160758739.3840747
2,4, 1, 4, 0,12,10.00,20.00,Wednesday
8,158933866.79538748
2,4, 1, 4, 0,12,20.00,30.00,Wednesday
8,157283820.87021658
2,4, 1, 4, 0,12,30.00,40.00,Wednesday
8,155907813.4361681
2,4, 1, 4, 0,12,40.00,50.00,Wednesday
8,154660292.17309913
2,4, 1, 4, 0,12,50.00,60.00,Wednesday
8,153574134.6018111
2,4, 1, 4, 0,13, 0.00,10.00,Wednesday
8,151741169.47694185
2,4, 1, 4, 0,13,10.00,20.00,Wednesday
8,151075581.02336517
2,4, 1, 4, 0,13,20.00,30.00,Wednesday
8,150669380.2768217
2,4, 1, 4, 0,13,30.00,40.00,Wednesday
8,150314627.94312033
2,4, 1, 4, 0,13,40.00,50.00,Wednesday
8,150006957.55521867
2,4, 1, 4, 0,13,50.00,60.00,Wednesday
8,149731902.6654823
2,4, 1, 4, 0,14, 0.00,10.00,Wednesday
8,149402507.9075334
2,4, 1, 4, 0,14,10.00,20.00,Wednesday
8,149167621.79180485
2,4, 1, 4, 0,14,20.00,30.00,Wednesday
8,149003563.5735967
2,4, 1, 4, 0,14,30.00,40.00,Wednesday
8,149028684.31322807
2,4, 1, 4, 0,14,40.00,50.00,Wednesday
8,149027391.8151882
2,4, 1, 4, 0,14,50.00,60.00,Wednesday
8,149034679.4997276
2,4, 1, 4, 0,15, 0.00,10.00,Wednesday
8,149906718.246094
2,4, 1, 4, 0,15,10.00,20.00,Wednesday
8,149938939.05330375
2,4, 1, 4, 0,15,20.00,30.00,Wednesday
8,150015351.38169053
2,4, 1, 4, 0,15,30.00,40.00,Wednesday