Program Version,EnergyPlus, Version 23.2.0-7636e6b3e9, YMD=2025.01.19 15:44
1,5,Environment Title[],Latitude[deg],Longitude[deg],Time Zone[],Elevation[m]
2,8,Day of Simulation[],Month[],Day of Month[],DST Indicator[1=yes 0=no],Hour[],StartMinute[],EndMinute[],DayType
3,5,Cumulative Day of Simulation[],Month[],Day of Month[],DST Indicator[1=yes 0=no],DayType  ! When Daily Report Variables Requested
4,2,Cumulative Days of Simulation[],Month[]  ! When Monthly Report Variables Requested
5,1,Cumulative Days of Simulation[] ! When Run Period Report Variables Requested
6,1,Calendar Year of Simulation[] ! When Annual Report Variables Requested
8,1,Electricity:Facility [J] !TimeStep
End of Data Dictionary
1,RUN PERIOD 1,  51.53, -71.11,  -5.00, 549.00
2,1, 1, 1, 0, 1, 0.00,10.00,Sunday
8,67719213.41199924
2,1, 1, 1, 0, 1,10.00,20.00,Sunday
8,61926591.71833008
2,1, 1, 1, 0, 1,20.00,30.00,Sunday
8,54888700.82877626
2,1, 1, 1, 0, 1,30.00,40.00,Sunday
8,47845435.294814974
2,1, 1, 1, 0, 1,40.00,50.00,Sunday
8,39660359.29104
2,1, 1, 1, 0, 1,50.00,60.00,Sunday
8,31152843.387671605
2,1, 1, 1, 0, 2, 0.00,10.00,Sunday
8,33624648.10004779
2,1, 1, 1, 0, 2,10.00,20.00,Sunday
8,34500157.433687046
2,1, 1, 1, 0, 2,20.00,30.00,Sunday
8,34610981.6864003
2,1, 1, 1, 0, 2,30.00,40.00,Sunday
8,34498450.177748166
2,1, 1, 1, 0, 2,40.00,50.00,Sunday
8,34557035.26370407
2,1, 1, 1, 0, 2,50.00,60.00,Sunday
8,34826785.5093799
2,1, 1, 1, 0, 3, 0.00,10.00,Sunday
8,35584134.84203891
2,1, 1, 1, 0, 3,10.00,20.00,Sunday
8,35385903.15439806
2,1, 1, 1, 0, 3,20.00,30.00,Sunday
8,35389386.92371585
2,1, 1, 1, 0, 3,30.00,40.00,Sunday
8,35582163.47591703
2,1, 1, 1, 0, 3,40.00,50.00,Sunday
8,35690738.26012888
2,1, 1, 1, 0, 3,50.00,60.00,Sunday
8,35293992.670873486
2,1, 1, 1, 0, 4, 0.00,10.00,Sunday
8,36253191.212870695
2,1, 1, 1, 0, 4,10.00,20.00,Sunday
8,37248533.62311823
2,1, 1, 1, 0, 4,20.00,30.00,Sunday
8,38254765.82614949
2,1, 1, 1, 0, 4,30.00,40.00,Sunday
8,38656861.59816718
2,1, 1, 1, 0, 4,40.00,50.00,Sunday
8,39430490.09268352
2,1, 1, 1, 0, 4,50.00,60.00,Sunday
8,40372620.96720256
2,1, 1, 1, 0, 5, 0.00,10.00,Sunday
8,39729197.64544327
2,1, 1, 1, 0, 5,10.00,20.00,Sunday
8,38496563.643234715
2,1, 1, 1, 0, 5,20.00,30.00,Sunday
8,37683311.66853211
2,1, 1, 1, 0, 5,30.00,40.00,Sunday
8,37010179.14104153
2,1, 1, 1, 0, 5,40.00,50.00,Sunday
8,36503643.18548778
2,1, 1, 1, 0, 5,50.00,60.00,Sunday
8,35291182.71519569
2,1, 1, 1, 0, 6, 0.00,10.00,Sunday
8,35357297.63998246
2,1, 1, 1, 0, 6,10.00,20.00,Sunday
8,35500347.3019565
2,1, 1, 1, 0, 6,20.00,30.00,Sunday
8,35828387.498081386
2,1, 1, 1, 0, 6,30.00,40.00,Sunday
8,35399544.30060637
2,1, 1, 1, 0, 6,40.00,50.00,Sunday
8,35403987.75991339
2,1, 1, 1, 0, 6,50.00,60.00,Sunday
8,35516830.17563222
2,1, 1, 1, 0, 7, 0.00,10.00,Sunday
8,38213195.62667285
2,1, 1, 1, 0, 7,10.00,20.00,Sunday
8,40101160.55774423
2,1, 1, 1, 0, 7,20.00,30.00,Sunday
8,42449468.43931011
2,1, 1, 1, 0, 7,30.00,40.00,Sunday
8,44918851.3823582
2,1, 1, 1, 0, 7,40.00,50.00,Sunday
8,47644383.09443636
2,1, 1, 1, 0, 7,50.00,60.00,Sunday
8,49588509.4686161
2,1, 1, 1, 0, 8, 0.00,10.00,Sunday
8,49867499.33355909
2,1, 1, 1, 0, 8,10.00,20.00,Sunday
8,50259872.056367524
2,1, 1, 1, 0, 8,20.00,30.00,Sunday
8,50910896.33567997
2,1, 1, 1, 0, 8,30.00,40.00,Sunday
8,50754252.460977174
2,1, 1, 1, 0, 8,40.00,50.00,Sunday
8,51052439.06718349
2,1, 1, 1, 0, 8,50.00,60.00,Sunday
8,50805293.64892592
2,1, 1, 1, 0, 9, 0.00,10.00,Sunday
8,48516449.056546524
2,1, 1, 1, 0, 9,10.00,20.00,Sunday
8,45557398.216345094
2,1, 1, 1, 0, 9,20.00,30.00,Sunday
8,43020355.625944145
2,1, 1, 1, 0, 9,30.00,40.00,Sunday
8,40525038.90417103
2,1, 1, 1, 0, 9,40.00,50.00,Sunday
8,38312446.32379063
2,1, 1, 1, 0, 9,50.00,60.00,Sunday
8,35270084.06867295
2,1, 1, 1, 0,10, 0.00,10.00,Sunday
8,76440918.09871045
2,1, 1, 1, 0,10,10.00,20.00,Sunday
8,20538047.529417325
2,1, 1, 1, 0,10,20.00,30.00,Sunday
8,54579804.86186924
2,1, 1, 1, 0,10,30.00,40.00,Sunday
8,47662777.537386276
2,1, 1, 1, 0,10,40.00,50.00,Sunday
8,47922815.543166704
2,1, 1, 1, 0,10,50.00,60.00,Sunday
8,48794555.00443718
2,1, 1, 1, 0,11, 0.00,10.00,Sunday
8,89030663.70103182
2,1, 1, 1, 0,11,10.00,20.00,Sunday
8,80055979.61985675
2,1, 1, 1, 0,11,20.00,30.00,Sunday
8,75385920.75207776
2,1, 1, 1, 0,11,30.00,40.00,Sunday
8,77322630.54579079
2,1, 1, 1, 0,11,40.00,50.00,Sunday
8,81488618.99563615
2,1, 1, 1, 0,11,50.00,60.00,Sunday
8,85598938.96010055
2,1, 1, 1, 0,12, 0.00,10.00,Sunday
8,166841982.9521394
2,1, 1, 1, 0,12,10.00,20.00,Sunday
8,164804921.09296918
2,1, 1, 1, 0,12,20.00,30.00,Sunday
8,163436663.27817386
2,1, 1, 1, 0,12,30.00,40.00,Sunday
8,161601809.46974358
2,1, 1, 1, 0,12,40.00,50.00,Sunday
8,161305494.04218793
2,1, 1, 1, 0,12,50.00,60.00,Sunday
8,160497001.53558648
2,1, 1, 1, 0,13, 0.00,10.00,Sunday
8,155645058.55226806
2,1, 1, 1, 0,13,10.00,20.00,Sunday
8,154299318.05732122
2,1, 1, 1, 0,13,20.00,30.00,Sunday
8,153428009.88397563
2,1, 1, 1, 0,13,30.00,40.00,Sunday
8,152788783.9819733
2,1, 1, 1, 0,13,40.00,50.00,Sunday
8,152489994.93170372
2,1, 1, 1, 0,13,50.00,60.00,Sunday
8,152106526.6013534
2,1, 1, 1, 0,14, 0.00,10.00,Sunday
8,154818374.87800822
2,1, 1, 1, 0,14,10.00,20.00,Sunday
8,157269810.28230056
2,1, 1, 1, 0,14,20.00,30.00,Sunday
8,160475316.15801853
2,1, 1, 1, 0,14,30.00,40.00,Sunday
8,164374697.74443084
2,1, 1, 1, 0,14,40.00,50.00,Sunday
8,166978411.56101853
2,1, 1, 1, 0,14,50.00,60.00,Sunday
8,170316877.5463772
2,1, 1, 1, 0,15, 0.00,10.00,Sunday
8,169042850.90376294
2,1, 1, 1, 0,15,10.00,20.00,Sunday
8,165950622.7574832
2,1, 1, 1, 0,15,20.00,30.00,Sunday
8,163529203.48507634
2,1, 1, 1, 0,15,30.00,40.00,Sunday
8,161677462.17814744
2,1, 1, 1, 0,15,40.00,50.00,Sunday
8,158844818.50422457
2,1, 1, 1, 0,15,50.00,60.00,Sunday
8,156837755.03648123
2,1, 1, 1, 0,16, 0.00,10.00,Sunday
8,160089893.9170048
2,1, 1, 1, 0,16,10.00,20.00,Sunday
8,162604783.0221814
2,1, 1, 1, 0,16,20.00,30.00,Sunday
8,164880869.0400231
2,1, 1, 1, 0,16,30.00,40.00,Sunday
8,167288536.0232163
2,1, 1, 1, 0,16,40.00,50.00,Sunday
8,169052235.55844402
2,1, 1, 1, 0,16,50.00,60.00,Sunday
8,170846268.4950259
2,1, 1, 1, 0,17, 0.00,10.00,Sunday
8,171130371.9359524
2,1, 1, 1, 0,17,10.00,20.00,Sunday
8,170303872.21342328
2,1, 1, 1, 0,17,20.00,30.00,Sunday
8,169170877.92493278
2,1, 1, 1, 0,17,30.00,40.00,Sunday
8,168107358.1748968
2,1, 1, 1, 0,17,40.00,50.00,Sunday
8,166830388.86362055
2,1, 1, 1, 0,17,50.00,60.00,Sunday
8,165446977.37855282
2,1, 1, 1, 0,18, 0.00,10.00,Sunday
8,164883653.90130135
2,1, 1, 1, 0,18,10.00,20.00,Sunday
8,163668831.72348636
2,1, 1, 1, 0,18,20.00,30.00,Sunday
8,161834294.75739512
2,1, 1, 1, 0,18,30.00,40.00,Sunday
8,160490671.0826423
2,1, 1, 1, 0,18,40.00,50.00,Sunday
8,159281235.14760506
2,1, 1, 1, 0,18,50.00,60.00,Sunday
8,157711871.9608588
2,1, 1, 1, 0,19, 0.00,10.00,Sunday
8,158539377.4957763
2,1, 1, 1, 0,19,10.00,20.00,Sunday
8,162662186.72125465
2,1, 1, 1, 0,19,20.00,30.00,Sunday
8,166957683.7231574
2,1, 1, 1, 0,19,30.00,40.00,Sunday
8,170255717.1997496
2,1, 1, 1, 0,19,40.00,50.00,Sunday
8,174620332.4775167
2,1, 1, 1, 0,19,50.00,60.00,Sunday
8,178542066.3737805
2,1, 1, 1, 0,20, 0.00,10.00,Sunday
8,23270974.09345608
2,1, 1, 1, 0,20,10.00,20.00,Sunday
8,33900324.15858621
2,1, 1, 1, 0,20,20.00,30.00,Sunday
8,48789396.52374586
2,1, 1, 1, 0,20,30.00,40.00,Sunday
8,62189087.04192814
2,1, 1, 1, 0,20,40.00,50.00,Sunday
8,62740463.240188025
2,1, 1, 1, 0,20,50.00,60.00,Sunday
8,63234425.06295288
2,1, 1, 1, 0,21, 0.00,10.00,Sunday
8,69843037.85143861
2,1, 1, 1, 0,21,10.00,20.00,Sunday
8,71969227.22096813
2,1, 1, 1, 0,21,20.00,30.00,Sunday
8,71793754.56134017
2,1, 1, 1, 0,21,30.00,40.00,Sunday
8,72068354.48712736
2,1, 1, 1, 0,21,40.00,50.00,Sunday
8,72182019.52154301
2,1, 1, 1, 0,21,50.00,60.00,Sunday
8,72740025.42371513
2,1, 1, 1, 0,22, 0.00,10.00,Sunday
8,74709616.06171106
2,1, 1, 1, 0,22,10.00,20.00,Sunday
8,74913465.88044383
2,1, 1, 1, 0,22,20.00,30.00,Sunday
8,74681113.9740356
2,1, 1, 1, 0,22,30.00,40.00,Sunday
8,74941388.72968127
2,1, 1, 1, 0,22,40.00,50.00,Sunday
8,74006529.99549502
2,1, 1, 1, 0,22,50.00,60.00,Sunday
8,73577848.47481842
2,1, 1, 1, 0,23, 0.00,10.00,Sunday
8,75016079.42547323
2,1, 1, 1, 0,23,10.00,20.00,Sunday
8,76034469.84386127
2,1, 1, 1, 0,23,20.00,30.00,Sunday
8,75765837.57391633
2,1, 1, 1, 0,23,30.00,40.00,Sunday
8,76031517.6475975
2,1, 1, 1, 0,23,40.00,50.00,Sunday
8,76269360.85228164
2,1, 1, 1, 0,23,50.00,60.00,Sunday
8,77048602.28214294
2,1, 1, 1, 0,24, 0.00,10.00,Sunday
8,77898822.82209824
2,1, 1, 1, 0,24,10.00,20.00,Sunday
8,78873605.60096098
2,1, 1, 1, 0,24,20.00,30.00,Sunday
8,79771702.13600872
2,1, 1, 1, 0,24,30.00,40.00,Sunday
8,81215029.90717559
2,1, 1, 1, 0,24,40.00,50.00,Sunday
8,81519506.53160489
2,1, 1, 1, 0,24,50.00,60.00,Sunday
8,82374733.58924879
2,2, 1, 2, 0, 1, 0.00,10.00,Monday
8,83755685.82621291
2,2, 1, 2, 0, 1,10.00,20.00,Monday
8,85638229.84435385
2,2, 1, 2, 0, 1,20.00,30.00,Monday
8,86396593.94390278
2,2, 1, 2, 0, 1,30.00,40.00,Monday
8,87722762.63128121
2,2, 1, 2, 0, 1,40.00,50.00,Monday
8,89051779.85714908
2,2, 1, 2, 0, 1,50.00,60.00,Monday
8,90945008.40581034
2,2, 1, 2, 0, 2, 0.00,10.00,Monday
8,89966620.19473664
2,2, 1, 2, 0, 2,10.00,20.00,Monday
8,89374869.70242892
2,2, 1, 2, 0, 2,20.00,30.00,Monday
8,88748207.0859215
2,2, 1, 2, 0, 2,30.00,40.00,Monday
8,88674110.64440812
2,2, 1, 2, 0, 2,40.00,50.00,Monday
8,87463699.19938855
2,2, 1, 2, 0, 2,50.00,60.00,Monday
8,86809342.72922151
2,2, 1, 2, 0, 3, 0.00,10.00,Monday
8,86662892.14591171
2,2, 1, 2, 0, 3,10.00,20.00,Monday
8,87030707.2810742
2,2, 1, 2, 0, 3,20.00,30.00,Monday
8,86264726.7508749
2,2, 1, 2, 0, 3,30.00,40.00,Monday
8,86061628.51159984
2,2, 1, 2, 0, 3,40.00,50.00,Monday
8,85856779.76829198
2,2, 1, 2, 0, 3,50.00,60.00,Monday
8,86213923.22984996
2,2, 1, 2, 0, 4, 0.00,10.00,Monday
8,86255911.31231603
2,2, 1, 2, 0, 4,10.00,20.00,Monday
8,86734535.43146344
2,2, 1, 2, 0, 4,20.00,30.00,Monday
8,87190014.5183358
2,2, 1, 2, 0, 4,30.00,40.00,Monday
8,88186994.9599103
2,2, 1, 2, 0, 4,40.00,50.00,Monday
8,88095446.00643164
2,2, 1, 2, 0, 4,50.00,60.00,Monday
8,88518105.5519649
2,2, 1, 2, 0, 5, 0.00,10.00,Monday
8,89435672.83052514
2,2, 1, 2, 0, 5,10.00,20.00,Monday
8,90780990.37946332
2,2, 1, 2, 0, 5,20.00,30.00,Monday
8,91371974.99036545
2,2, 1, 2, 0, 5,30.00,40.00,Monday
8,92163860.16331019
2,2, 1, 2, 0, 5,40.00,50.00,Monday
8,93081858.33922079
2,2, 1, 2, 0, 5,50.00,60.00,Monday
8,94353275.34287229
2,2, 1, 2, 0, 6, 0.00,10.00,Monday
8,93297642.00194418
2,2, 1, 2, 0, 6,10.00,20.00,Monday
8,92074907.12160932
2,2, 1, 2, 0, 6,20.00,30.00,Monday
8,91040057.22158492
2,2, 1, 2, 0, 6,30.00,40.00,Monday
8,90277394.20102324
2,2, 1, 2, 0, 6,40.00,50.00,Monday
8,89215518.59294648
2,2, 1, 2, 0, 6,50.00,60.00,Monday
8,87874086.5706172
2,2, 1, 2, 0, 7, 0.00,10.00,Monday
8,84601777.30689114
2,2, 1, 2, 0, 7,10.00,20.00,Monday
8,81457109.21925443
2,2, 1, 2, 0, 7,20.00,30.00,Monday
8,78136204.03225555
2,2, 1, 2, 0, 7,30.00,40.00,Monday
8,74379759.71376072
2,2, 1, 2, 0, 7,40.00,50.00,Monday
8,70928101.76575047
2,2, 1, 2, 0, 7,50.00,60.00,Monday
8,67655978.40218848
2,2, 1, 2, 0, 8, 0.00,10.00,Monday
8,126807618.34035513
2,2, 1, 2, 0, 8,10.00,20.00,Monday
8,97368336.80461076
2,2, 1, 2, 0, 8,20.00,30.00,Monday
8,100060536.72353667
2,2, 1, 2, 0, 8,30.00,40.00,Monday
8,96064260.01514359
2,2, 1, 2, 0, 8,40.00,50.00,Monday
8,95360358.12561393
2,2, 1, 2, 0, 8,50.00,60.00,Monday
8,93856145.4507328
2,2, 1, 2, 0, 9, 0.00,10.00,Monday
8,131624248.85450703
2,2, 1, 2, 0, 9,10.00,20.00,Monday
8,133958647.01113118
2,2, 1, 2, 0, 9,20.00,30.00,Monday
8,105823068.7336039
2,2, 1, 2, 0, 9,30.00,40.00,Monday
8,117597340.38154612
2,2, 1, 2, 0, 9,40.00,50.00,Monday
8,115414851.38265128
2,2, 1, 2, 0, 9,50.00,60.00,Monday
8,116575060.65615213
2,2, 1, 2, 0,10, 0.00,10.00,Monday
8,209550248.29140657
2,2, 1, 2, 0,10,10.00,20.00,Monday
8,205728760.78128412
2,2, 1, 2, 0,10,20.00,30.00,Monday
8,203428345.61852852
2,2, 1, 2, 0,10,30.00,40.00,Monday
8,201649252.74400988
2,2, 1, 2, 0,10,40.00,50.00,Monday
8,199975687.0177583
2,2, 1, 2, 0,10,50.00,60.00,Monday
8,198431878.71402788
2,2, 1, 2, 0,11, 0.00,10.00,Monday
8,192008601.65243
2,2, 1, 2, 0,11,10.00,20.00,Monday
8,189687684.7789486
2,2, 1, 2, 0,11,20.00,30.00,Monday
8,187941941.10315952
2,2, 1, 2, 0,11,30.00,40.00,Monday
8,186180699.62093046
2,2, 1, 2, 0,11,40.00,50.00,Monday
8,184410244.25344592
2,2, 1, 2, 0,11,50.00,60.00,Monday
8,182749523.47833472
2,2, 1, 2, 0,12, 0.00,10.00,Monday
8,179132703.99527177
2,2, 1, 2, 0,12,10.00,20.00,Monday
8,177797921.06201106
2,2, 1, 2, 0,12,20.00,30.00,Monday
8,176806446.66527525
2,2, 1, 2, 0,12,30.00,40.00,Monday
8,176024787.65316182
2,2, 1, 2, 0,12,40.00,50.00,Monday
8,175373572.7759918
2,2, 1, 2, 0,12,50.00,60.00,Monday
8,174834396.54573917
2,2, 1, 2, 0,13, 0.00,10.00,Monday
8,170886839.12691823
2,2, 1, 2, 0,13,10.00,20.00,Monday
8,168231667.2641204
2,2, 1, 2, 0,13,20.00,30.00,Monday
8,165922495.00802684
2,2, 1, 2, 0,13,30.00,40.00,Monday
8,163726226.75382787
2,2, 1, 2, 0,13,40.00,50.00,Monday
8,161615862.00462478
2,2, 1, 2, 0,13,50.00,60.00,Monday
8,159567630.7476889
2,2, 1, 2, 0,14, 0.00,10.00,Monday
8,162724094.30528757
2,2, 1, 2, 0,14,10.00,20.00,Monday
8,166032986.78450587
2,2, 1, 2, 0,14,20.00,30.00,Monday
8,169475721.46837687
2,2, 1, 2, 0,14,30.00,40.00,Monday
8,173118703.5721827
2,2, 1, 2, 0,14,40.00,50.00,Monday
8,176863785.45573214
2,2, 1, 2, 0,14,50.00,60.00,Monday
8,180668896.34858328
2,2, 1, 2, 0,15, 0.00,10.00,Monday
8,181628662.21763182
2,2, 1, 2, 0,15,10.00,20.00,Monday
8,181425105.18961963
2,2, 1, 2, 0,15,20.00,30.00,Monday
8,181135031.63275987
2,2, 1, 2, 0,15,30.00,40.00,Monday
8,180872088.40676436
2,2, 1, 2, 0,15,40.00,50.00,Monday
8,180600064.8159472
2,2, 1, 2, 0,15,50.00,60.00,Monday
8,180392142.77943373
2,2, 1, 2, 0,16, 0.00,10.00,Monday
8,183471597.2352455
2,2, 1, 2, 0,16,10.00,20.00,Monday
8,185458360.3709112
2,2, 1, 2, 0,16,20.00,30.00,Monday
8,187139546.9801044
2,2, 1, 2, 0,16,30.00,40.00,Monday
8,189005398.14580187
2,2, 1, 2, 0,16,40.00,50.00,Monday
8,190315568.75342786
2,2, 1, 2, 0,16,50.00,60.00,Monday
8,191491886.63867244
2,2, 1, 2, 0,17, 0.00,10.00,Monday
8,191996654.4687768
2,2, 1, 2, 0,17,10.00,20.00,Monday
8,191203255.95460382
2,2, 1, 2, 0,17,20.00,30.00,Monday
8,190043686.8241117
2,2, 1, 2, 0,17,30.00,40.00,Monday
8,188792780.26037765
2,2, 1, 2, 0,17,40.00,50.00,Monday
8,187461292.57123056
2,2, 1, 2, 0,17,50.00,60.00,Monday
8,185496095.55923152
2,2, 1, 2, 0,18, 0.00,10.00,Monday
8,187106571.56676194
2,2, 1, 2, 0,18,10.00,20.00,Monday
8,188301491.04322174
2,2, 1, 2, 0,18,20.00,30.00,Monday
8,189277175.3522681
2,2, 1, 2, 0,18,30.00,40.00,Monday
8,190205278.78894764
2,2, 1, 2, 0,18,40.00,50.00,Monday
8,191108600.45186776
2,2, 1, 2, 0,18,50.00,60.00,Monday
8,191993911.82234752
2,2, 1, 2, 0,19, 0.00,10.00,Monday
8,189468203.8048116
2,2, 1, 2, 0,19,10.00,20.00,Monday
8,186737186.271289
2,2, 1, 2, 0,19,20.00,30.00,Monday
8,183514603.78063557
2,2, 1, 2, 0,19,30.00,40.00,Monday
8,180927613.07416362
2,2, 1, 2, 0,19,40.00,50.00,Monday
8,178265056.0038778
2,2, 1, 2, 0,19,50.00,60.00,Monday
8,175384261.82313684
2,2, 1, 2, 0,20, 0.00,10.00,Monday
8,149911572.8176831
2,2, 1, 2, 0,20,10.00,20.00,Monday
8,156770099.86134726
2,2, 1, 2, 0,20,20.00,30.00,Monday
8,163849753.9049809
2,2, 1, 2, 0,20,30.00,40.00,Monday
8,166063900.05199492
2,2, 1, 2, 0,20,40.00,50.00,Monday
8,169045843.4760108
2,2, 1, 2, 0,20,50.00,60.00,Monday
8,171729360.4134673
2,2, 1, 2, 0,21, 0.00,10.00,Monday
8,172136424.52549598
2,2, 1, 2, 0,21,10.00,20.00,Monday
8,173635623.72915024
2,2, 1, 2, 0,21,20.00,30.00,Monday
8,173818409.53106073
2,2, 1, 2, 0,21,30.00,40.00,Monday
8,173984804.949767
2,2, 1, 2, 0,21,40.00,50.00,Monday
8,174649562.7981119
2,2, 1, 2, 0,21,50.00,60.00,Monday
8,174280045.65758377
2,2, 1, 2, 0,22, 0.00,10.00,Monday
8,22960865.516427804
2,2, 1, 2, 0,22,10.00,20.00,Monday
8,28447074.950734485
2,2, 1, 2, 0,22,20.00,30.00,Monday
8,42831885.990277335
2,2, 1, 2, 0,22,30.00,40.00,Monday
8,52561244.26871066
2,2, 1, 2, 0,22,40.00,50.00,Monday
8,53963688.91232687
2,2, 1, 2, 0,22,50.00,60.00,Monday
8,50428353.743573025
2,2, 1, 2, 0,23, 0.00,10.00,Monday
8,56493818.82710128
2,2, 1, 2, 0,23,10.00,20.00,Monday
8,57226269.72760881
2,2, 1, 2, 0,23,20.00,30.00,Monday
8,57332791.62426483
2,2, 1, 2, 0,23,30.00,40.00,Monday
8,56192425.56906461
2,2, 1, 2, 0,23,40.00,50.00,Monday
8,55417569.33147816
2,2, 1, 2, 0,23,50.00,60.00,Monday
8,54500933.56145453
2,2, 1, 2, 0,24, 0.00,10.00,Monday
8,59751689.94802667
2,2, 1, 2, 0,24,10.00,20.00,Monday
8,61639932.26829035
2,2, 1, 2, 0,24,20.00,30.00,Monday
8,63664862.81529574
2,2, 1, 2, 0,24,30.00,40.00,Monday
8,65629520.71961852
2,2, 1, 2, 0,24,40.00,50.00,Monday
8,68077927.0734726
2,2, 1, 2, 0,24,50.00,60.00,Monday
8,69371890.00949366
2,3, 1, 3, 0, 1, 0.00,10.00,Tuesday
8,67974489.74749655
2,3, 1, 3, 0, 1,10.00,20.00,Tuesday
8,65595103.20189426
2,3, 1, 3, 0, 1,20.00,30.00,Tuesday
8,63546532.291601576
2,3, 1, 3, 0, 1,30.00,40.00,Tuesday
8,60450917.06348175
2,3, 1, 3, 0, 1,40.00,50.00,Tuesday
8,57881172.06093255
2,3, 1, 3, 0, 1,50.00,60.00,Tuesday
8,55372601.91716143
2,3, 1, 3, 0, 2, 0.00,10.00,Tuesday
8,60078910.39476888
2,3, 1, 3, 0, 2,10.00,20.00,Tuesday
8,63522803.09729166
2,3, 1, 3, 0, 2,20.00,30.00,Tuesday
8,67388917.21655144
2,3, 1, 3, 0, 2,30.00,40.00,Tuesday
8,71302067.24186935
2,3, 1, 3, 0, 2,40.00,50.00,Tuesday
8,75492928.71147636
2,3, 1, 3, 0, 2,50.00,60.00,Tuesday
8,78784785.94729601
2,3, 1, 3, 0, 3, 0.00,10.00,Tuesday
8,74929228.04734011
2,3, 1, 3, 0, 3,10.00,20.00,Tuesday
8,71115959.2262266
2,3, 1, 3, 0, 3,20.00,30.00,Tuesday
8,67563754.1997957
2,3, 1, 3, 0, 3,30.00,40.00,Tuesday
8,63204970.86515795
2,3, 1, 3, 0, 3,40.00,50.00,Tuesday
8,59310424.88596678
2,3, 1, 3, 0, 3,50.00,60.00,Tuesday
8,55534204.35413901
2,3, 1, 3, 0, 4, 0.00,10.00,Tuesday
8,58894978.97331277
2,3, 1, 3, 0, 4,10.00,20.00,Tuesday
8,61389894.30787695
2,3, 1, 3, 0, 4,20.00,30.00,Tuesday
8,64291200.71153053
2,3, 1, 3, 0, 4,30.00,40.00,Tuesday
8,67282281.021465
2,3, 1, 3, 0, 4,40.00,50.00,Tuesday
8,70441043.73373514
2,3, 1, 3, 0, 4,50.00,60.00,Tuesday
8,72819459.5703755
2,3, 1, 3, 0, 5, 0.00,10.00,Tuesday
8,72861763.84056488
2,3, 1, 3, 0, 5,10.00,20.00,Tuesday
8,73016873.04480278
2,3, 1, 3, 0, 5,20.00,30.00,Tuesday
8,73350269.64415534
2,3, 1, 3, 0, 5,30.00,40.00,Tuesday
8,72951011.71062046
2,3, 1, 3, 0, 5,40.00,50.00,Tuesday
8,72982118.34681642
2,3, 1, 3, 0, 5,50.00,60.00,Tuesday
8,73143367.21932144
2,3, 1, 3, 0, 6, 0.00,10.00,Tuesday
8,73472901.52372633
2,3, 1, 3, 0, 6,10.00,20.00,Tuesday
8,73020129.21094167
2,3, 1, 3, 0, 6,20.00,30.00,Tuesday
8,72979393.01443312
2,3, 1, 3, 0, 6,30.00,40.00,Tuesday
8,73067086.63271388
2,3, 1, 3, 0, 6,40.00,50.00,Tuesday
8,73307694.48577483
2,3, 1, 3, 0, 6,50.00,60.00,Tuesday
8,72834164.99129343
2,3, 1, 3, 0, 7, 0.00,10.00,Tuesday
8,72170594.39406
2,3, 1, 3, 0, 7,10.00,20.00,Tuesday
8,71656560.61687087
2,3, 1, 3, 0, 7,20.00,30.00,Tuesday
8,71292457.41708276
2,3, 1, 3, 0, 7,30.00,40.00,Tuesday
8,70220397.41176496
2,3, 1, 3, 0, 7,40.00,50.00,Tuesday
8,69566722.63128568
2,3, 1, 3, 0, 7,50.00,60.00,Tuesday
8,69047434.62686081
2,3, 1, 3, 0, 8, 0.00,10.00,Tuesday
8,125548441.22506252
2,3, 1, 3, 0, 8,10.00,20.00,Tuesday
8,94659754.50306943
2,3, 1, 3, 0, 8,20.00,30.00,Tuesday
8,95802228.42077926
2,3, 1, 3, 0, 8,30.00,40.00,Tuesday
8,90346553.96141322
2,3, 1, 3, 0, 8,40.00,50.00,Tuesday
8,88256757.40362889
2,3, 1, 3, 0, 8,50.00,60.00,Tuesday
8,85468395.41558798
2,3, 1, 3, 0, 9, 0.00,10.00,Tuesday
8,126689544.07648483
2,3, 1, 3, 0, 9,10.00,20.00,Tuesday
8,117818384.550278
2,3, 1, 3, 0, 9,20.00,30.00,Tuesday
8,95954614.88166536
2,3, 1, 3, 0, 9,30.00,40.00,Tuesday
8,96766975.14822952
2,3, 1, 3, 0, 9,40.00,50.00,Tuesday
8,94261033.60643235
2,3, 1, 3, 0, 9,50.00,60.00,Tuesday
8,92378651.08198255
2,3, 1, 3, 0,10, 0.00,10.00,Tuesday
8,174575037.52357394
2,3, 1, 3, 0,10,10.00,20.00,Tuesday
8,170756700.02928513
2,3, 1, 3, 0,10,20.00,30.00,Tuesday
8,168407589.6001202
2,3, 1, 3, 0,10,30.00,40.00,Tuesday
8,166615109.58851132
2,3, 1, 3, 0,10,40.00,50.00,Tuesday
8,164935916.67813548
2,3, 1, 3, 0,10,50.00,60.00,Tuesday
8,163384433.45420903
2,3, 1, 3, 0,11, 0.00,10.00,Tuesday
8,157356719.57259008
2,3, 1, 3, 0,11,10.00,20.00,Tuesday
8,155448477.66091573
2,3, 1, 3, 0,11,20.00,30.00,Tuesday
8,154059052.77119747
2,3, 1, 3, 0,11,30.00,40.00,Tuesday
8,152822592.43118924
2,3, 1, 3, 0,11,40.00,50.00,Tuesday
8,151638120.86203712
2,3, 1, 3, 0,11,50.00,60.00,Tuesday
8,150583372.54691043
2,3, 1, 3, 0,12, 0.00,10.00,Tuesday
8,147964154.85353374
2,3, 1, 3, 0,12,10.00,20.00,Tuesday
8,147176349.47068742
2,3, 1, 3, 0,12,20.00,30.00,Tuesday
8,146616629.8110091
2,3, 1, 3, 0,12,30.00,40.00,Tuesday
8,146195215.35122046
2,3, 1, 3, 0,12,40.00,50.00,Tuesday
8,145865845.98800856
2,3, 1, 3, 0,12,50.00,60.00,Tuesday
8,145625250.42510176
2,3, 1, 3, 0,13, 0.00,10.00,Tuesday
8,144837445.64664128
2,3, 1, 3, 0,13,10.00,20.00,Tuesday
8,144317636.62836072
2,3, 1, 3, 0,13,20.00,30.00,Tuesday
8,144027703.52724704
2,3, 1, 3, 0,13,30.00,40.00,Tuesday
8,143615167.8785641
2,3, 1, 3, 0,13,40.00,50.00,Tuesday
8,143169655.08007196
2,3, 1, 3, 0,13,50.00,60.00,Tuesday
8,142709020.0239581
2,3, 1, 3, 0,14, 0.00,10.00,Tuesday
8,142808310.97964752
2,3, 1, 3, 0,14,10.00,20.00,Tuesday
8,143320852.7423957
2,3, 1, 3, 0,14,20.00,30.00,Tuesday
8,143929575.98444328
2,3, 1, 3, 0,14,30.00,40.00,Tuesday
8,144694183.66436392
2,3, 1, 3, 0,14,40.00,50.00,Tuesday
8,145539464.58685932
2,3, 1, 3, 0,14,50.00,60.00,Tuesday
8,146437375.59270763
2,3, 1, 3, 0,15, 0.00,10.00,Tuesday
8,146130571.4865424
2,3, 1, 3, 0,15,10.00,20.00,Tuesday
8,145651131.36362004
2,3, 1, 3, 0,15,20.00,30.00,Tuesday
8,145129707.72578162
2,3, 1, 3, 0,15,30.00,40.00,Tuesday
8,144860133.3418777
2,3, 1, 3, 0,15,40.00,50.00,Tuesday
8,144689187.12496725
2,3, 1, 3, 0,15,50.00,60.00,Tuesday
8,144622643.28966337
2,3, 1, 3, 0,16, 0.00,10.00,Tuesday
8,144601083.58454075
2,3, 1, 3, 0,16,10.00,20.00,Tuesday
8,143750384.19304818
2,3, 1, 3, 0,16,20.00,30.00,Tuesday
8,142664363.89825514
2,3, 1, 3, 0,16,30.00,40.00,Tuesday
8,141284085.69460762
2,3, 1, 3, 0,16,40.00,50.00,Tuesday
8,140071871.153753
2,3, 1, 3, 0,16,50.00,60.00,Tuesday
8,138372023.46141475
2,3, 1, 3, 0,17, 0.00,10.00,Tuesday
8,140660393.46864986
2,3, 1, 3, 0,17,10.00,20.00,Tuesday
8,141717521.53282687
2,3, 1, 3, 0,17,20.00,30.00,Tuesday
8,142400747.70915413
2,3, 1, 3, 0,17,30.00,40.00,Tuesday
8,142977993.83699733
2,3, 1, 3, 0,17,40.00,50.00,Tuesday
8,143455373.05259833
2,3, 1, 3, 0,17,50.00,60.00,Tuesday
8,143278086.6690496
2,3, 1, 3, 0,18, 0.00,10.00,Tuesday
8,144625655.96801135
2,3, 1, 3, 0,18,10.00,20.00,Tuesday
8,145275541.35517907
2,3, 1, 3, 0,18,20.00,30.00,Tuesday
8,145617559.76450512
2,3, 1, 3, 0,18,30.00,40.00,Tuesday
8,145917962.01350722
2,3, 1, 3, 0,18,40.00,50.00,Tuesday
8,146180602.4488246
2,3, 1, 3, 0,18,50.00,60.00,Tuesday
8,146416891.78546694
2,3, 1, 3, 0,19, 0.00,10.00,Tuesday
8,146650160.08506122
2,3, 1, 3, 0,19,10.00,20.00,Tuesday
8,146523556.1927789
2,3, 1, 3, 0,19,20.00,30.00,Tuesday
8,146037147.17806476
2,3, 1, 3, 0,19,30.00,40.00,Tuesday
8,146190498.45841056
2,3, 1, 3, 0,19,40.00,50.00,Tuesday
8,146110191.3903685
2,3, 1, 3, 0,19,50.00,60.00,Tuesday
8,145884096.69592634
2,3, 1, 3, 0,20, 0.00,10.00,Tuesday
8,126448886.21136537
2,3, 1, 3, 0,20,10.00,20.00,Tuesday
8,129442126.77785678
2,3, 1, 3, 0,20,20.00,30.00,Tuesday
8,132394649.9032248
2,3, 1, 3, 0,20,30.00,40.00,Tuesday
8,136923503.71054906
2,3, 1, 3, 0,20,40.00,50.00,Tuesday
8,142221520.4599736
2,3, 1, 3, 0,20,50.00,60.00,Tuesday
8,145083170.1929074
2,3, 1, 3, 0,21, 0.00,10.00,Tuesday
8,145081450.61006895
2,3, 1, 3, 0,21,10.00,20.00,Tuesday
8,146254659.56964898
2,3, 1, 3, 0,21,20.00,30.00,Tuesday
8,145913919.2538804
2,3, 1, 3, 0,21,30.00,40.00,Tuesday
8,145917799.80396077
2,3, 1, 3, 0,21,40.00,50.00,Tuesday
8,146046932.25085735
2,3, 1, 3, 0,21,50.00,60.00,Tuesday
8,145161121.02975297
2,3, 1, 3, 0,22, 0.00,10.00,Tuesday
8,9985700.909296596
2,3, 1, 3, 0,22,10.00,20.00,Tuesday
8,12057584.901711347
2,3, 1, 3, 0,22,20.00,30.00,Tuesday
8,15768110.989163077
2,3, 1, 3, 0,22,30.00,40.00,Tuesday
8,18718286.309527196
2,3, 1, 3, 0,22,40.00,50.00,Tuesday
8,24698537.770342365
2,3, 1, 3, 0,22,50.00,60.00,Tuesday
8,29434619.644848816
2,3, 1, 3, 0,23, 0.00,10.00,Tuesday
8,42423575.53026699
2,3, 1, 3, 0,23,10.00,20.00,Tuesday
8,41178844.42771021
2,3, 1, 3, 0,23,20.00,30.00,Tuesday
8,42442312.6291154
2,3, 1, 3, 0,23,30.00,40.00,Tuesday
8,41711292.718389586
2,3, 1, 3, 0,23,40.00,50.00,Tuesday
8,41347779.52237429
2,3, 1, 3, 0,23,50.00,60.00,Tuesday
8,40847796.51898039
2,3, 1, 3, 0,24, 0.00,10.00,Tuesday
8,47161856.39185015
2,3, 1, 3, 0,24,10.00,20.00,Tuesday
8,49921327.27097904
2,3, 1, 3, 0,24,20.00,30.00,Tuesday
8,52801358.42392756
2,3, 1, 3, 0,24,30.00,40.00,Tuesday
8,55626613.480825484
2,3, 1, 3, 0,24,40.00,50.00,Tuesday
8,58946460.22127993
2,3, 1, 3, 0,24,50.00,60.00,Tuesday
8,61113007.24373963
2,4, 1, 4, 0, 1, 0.00,10.00,Wednesday
8,63036017.17514268
2,4, 1, 4, 0, 1,10.00,20.00,Wednesday
8,63886831.274366006
2,4, 1, 4, 0, 1,20.00,30.00,Wednesday
8,65080463.3707331
2,4, 1, 4, 0, 1,30.00,40.00,Wednesday
8,65096112.18909416
2,4, 1, 4, 0, 1,40.00,50.00,Wednesday
8,65607387.42050641
2,4, 1, 4, 0, 1,50.00,60.00,Wednesday
8,66068632.28051144
2,4, 1, 4, 0, 2, 0.00,10.00,Wednesday
8,68319252.19541599
2,4, 1, 4, 0, 2,10.00,20.00,Wednesday
8,69214963.80861105
2,4, 1, 4, 0, 2,20.00,30.00,Wednesday
8,70604705.98229432
2,4, 1, 4, 0, 2,30.00,40.00,Wednesday
8,71959007.52105667
2,4, 1, 4, 0, 2,40.00,50.00,Wednesday
8,73833811.69163176
2,4, 1, 4, 0, 2,50.00,60.00,Wednesday
8,74556977.76223585
2,4, 1, 4, 0, 3, 0.00,10.00,Wednesday
8,74203928.4162601
2,4, 1, 4, 0, 3,10.00,20.00,Wednesday
8,73844441.30294694
2,4, 1, 4, 0, 3,20.00,30.00,Wednesday
8,74041042.36758786
2,4, 1, 4, 0, 3,30.00,40.00,Wednesday
8,73121183.42010625
2,4, 1, 4, 0, 3,40.00,50.00,Wednesday
8,72758681.4936656
2,4, 1, 4, 0, 3,50.00,60.00,Wednesday
8,72396321.3215775
2,4, 1, 4, 0, 4, 0.00,10.00,Wednesday
8,73498711.82832196
2,4, 1, 4, 0, 4,10.00,20.00,Wednesday
8,73547758.14080873
2,4, 1, 4, 0, 4,20.00,30.00,Wednesday
8,74166246.08375722
2,4, 1, 4, 0, 4,30.00,40.00,Wednesday
8,74785281.2935299
2,4, 1, 4, 0, 4,40.00,50.00,Wednesday
8,75961209.90456295
2,4, 1, 4, 0, 4,50.00,60.00,Wednesday
8,76017714.07404171
2,4, 1, 4, 0, 5, 0.00,10.00,Wednesday
8,76037648.27560405
2,4, 1, 4, 0, 5,10.00,20.00,Wednesday
8,76036779.74281026
2,4, 1, 4, 0, 5,20.00,30.00,Wednesday
8,76590454.30525202
2,4, 1, 4, 0, 5,30.00,40.00,Wednesday
8,76025750.39113562
2,4, 1, 4, 0, 5,40.00,50.00,Wednesday
8,76018497.21989866
2,4, 1, 4, 0, 5,50.00,60.00,Wednesday
8,76010890.52017055
2,4, 1, 4, 0, 6, 0.00,10.00,Wednesday
8,76582751.19664165
2,4, 1, 4, 0, 6,10.00,20.00,Wednesday
8,75994100.8738967
2,4, 1, 4, 0, 6,20.00,30.00,Wednesday
8,75952664.43617593
2,4, 1, 4, 0, 6,30.00,40.00,Wednesday
8,75906832.69481038
2,4, 1, 4, 0, 6,40.00,50.00,Wednesday
8,76416656.92126262
2,4, 1, 4, 0, 6,50.00,60.00,Wednesday
8,75805774.95534778
2,4, 1, 4, 0, 7, 0.00,10.00,Wednesday
8,76566150.21974377
2,4, 1, 4, 0, 7,10.00,20.00,Wednesday
8,77394368.7932521
2,4, 1, 4, 0, 7,20.00,30.00,Wednesday
8,78798074.83615096
2,4, 1, 4, 0, 7,30.00,40.00,Wednesday
8,79087176.58732863
2,4, 1, 4, 0, 7,40.00,50.00,Wednesday
8,79937336.81101416
2,4, 1, 4, 0, 7,50.00,60.00,Wednesday
8,80788115.9759692
2,4, 1, 4, 0, 8, 0.00,10.00,Wednesday
8,138432432.3591186
2,4, 1, 4, 0, 8,10.00,20.00,Wednesday
8,109622378.70904197
2,4, 1, 4, 0, 8,20.00,30.00,Wednesday
8,110176601.76660745
2,4, 1, 4, 0, 8,30.00,40.00,Wednesday
8,106424667.96161205
2,4, 1, 4, 0, 8,40.00,50.00,Wednesday
8,104969379.89846879
2,4, 1, 4, 0, 8,50.00,60.00,Wednesday
8,103502491.72782218
2,4, 1, 4, 0, 9, 0.00,10.00,Wednesday
8,135185872.19591236
2,4, 1, 4, 0, 9,10.00,20.00,Wednesday
8,142542773.8894143
2,4, 1, 4, 0, 9,20.00,30.00,Wednesday
8,110042166.65793681
2,4, 1, 4, 0, 9,30.00,40.00,Wednesday
8,122127252.91344485
2,4, 1, 4, 0, 9,40.00,50.00,Wednesday
8,118152116.1027852
2,4, 1, 4, 0, 9,50.00,60.00,Wednesday
8,117079936.43638806
2,4, 1, 4, 0,10, 0.00,10.00,Wednesday
8,203449623.7137238
2,4, 1, 4, 0,10,10.00,20.00,Wednesday
8,199888409.57628688
2,4, 1, 4, 0,10,20.00,30.00,Wednesday
8,197650279.62632403
2,4, 1, 4, 0,10,30.00,40.00,Wednesday
8,195750760.66739678
2,4, 1, 4, 0,10,40.00,50.00,Wednesday
8,193904444.68019447
2,4, 1, 4, 0,10,50.00,60.00,Wednesday
8,192212361.91515753
2,4, 1, 4, 0,11, 0.00,10.00,Wednesday
8,186987109.52167535
2,4, 1, 4, 0,11,10.00,20.00,Wednesday
8,185684498.37048197
2,4, 1, 4, 0,11,20.00,30.00,Wednesday
8,184934166.27100155
2,4, 1, 4, 0,11,30.00,40.00,Wednesday
8,184103951.4214298
2,4, 1, 4, 0,11,40.00,50.00,Wednesday
8,183259931.26064837
2,4, 1, 4, 0,11,50.00,60.00,Wednesday
8,182579717.1756201
2,4, 1, 4, 0,12, 0.00,10.00,Wednesday
8,176484217.0870293
2,4, 1, 4, 0,12,10.00,20.00,Wednesday
8,172549022.86381266
2,4, 1, 4, 0,12,20.00,30.00,Wednesday
8,168881315.9932147
2,4, 1, 4, 0,12,30.00,40.00,Wednesday
8,165512160.1899886
2,4, 1, 4, 0,12,40.00,50.00,Wednesday
8,162296563.61847043
2,4, 1, 4, 0,12,50.00,60.00,Wednesday
8,159378193.14527556
2,4, 1, 4, 0,13, 0.00,10.00,Wednesday
8,155635631.97126773
2,4, 1, 4, 0,13,10.00,20.00,Wednesday
8,153540441.1073304
2,4, 1, 4, 0,13,20.00,30.00,Wednesday
8,151699374.77738845
2,4, 1, 4, 0,13,30.00,40.00,Wednesday
8,150000675.78867358
2,4, 1, 4, 0,13,40.00,50.00,Wednesday
8,148375986.41319233
2,4, 1, 4, 0,13,50.00,60.00,Wednesday
8,146814295.20186087
2,4, 1, 4, 0,14, 0.00,10.00,Wednesday
8,144278875.0827149
2,4, 1, 4, 0,14,10.00,20.00,Wednesday
8,142579018.40113348
2,4, 1, 4, 0,14,20.00,30.00,Wednesday
8,141046751.7796327
2,4, 1, 4, 0,14,30.00,40.00,Wednesday
8,139689268.56348887
2,4, 1, 4, 0,14,40.00,50.00,Wednesday
8,138430395.57733944
2,4, 1, 4, 0,14,50.00,60.00,Wednesday
8,137236969.1121731
2,4, 1, 4, 0,15, 0.00,10.00,Wednesday
8,138788266.02912956
2,4, 1, 4, 0,15,10.00,20.00,Wednesday
8,139733676.15433875
2,4, 1, 4, 0,15,20.00,30.00,Wednesday
8,140660511.08647746
2,4, 1, 4, 0,15,30.00,40.00,Wednesday
8,141734276.61073965
2,4, 1, 4, 0,15,40.00,50.00,Wednesday
8,142903316.15692374