Program Version,EnergyPlus, Version 23.2.0-7636e6b3e9, YMD=2025.01.19 15:47
1,5,Environment Title[],Latitude[deg],Longitude[deg],Time Zone[],Elevation[m]
2,8,Day of Simulation[],Month[],Day of Month[],DST Indicator[1=yes 0=no],Hour[],StartMinute[],EndMinute[],DayType
3,5,Cumulative Day of Simulation[],Month[],Day of Month[],DST Indicator[1=yes 0=no],DayType  ! When Daily Report Variables Requested
4,2,Cumulative Days of Simulation[],Month[]  ! When Monthly Report Variables Requested
5,1,Cumulative Days of Simulation[] ! When Run Period Report Variables Requested
6,1,Calendar Year of Simulation[] ! When Annual Report Variables Requested
9,1,Electricity:Facility [J] !TimeStep
End of Data Dictionary
1,RUN PERIOD 1,  45.47, -73.74,  -5.00,  36.00
2,1, 1, 1, 0, 1, 0.00,10.00,Sunday
9,38723791.37263795
2,1, 1, 1, 0, 1,10.00,20.00,Sunday
9,38829044.47593719
2,1, 1, 1, 0, 1,20.00,30.00,Sunday
9,37890704.238669544
2,1, 1, 1, 0, 1,30.00,40.00,Sunday
9,36882585.000509866
2,1, 1, 1, 0, 1,40.00,50.00,Sunday
9,36166996.996816434
2,1, 1, 1, 0, 1,50.00,60.00,Sunday
9,34571590.28210935
2,1, 1, 1, 0, 2, 0.00,10.00,Sunday
9,35503440.160560474
2,1, 1, 1, 0, 2,10.00,20.00,Sunday
9,35809181.20881205
2,1, 1, 1, 0, 2,20.00,30.00,Sunday
9,36436754.644143045
2,1, 1, 1, 0, 2,30.00,40.00,Sunday
9,36243194.27852154
2,1, 1, 1, 0, 2,40.00,50.00,Sunday
9,36442779.47474417
2,1, 1, 1, 0, 2,50.00,60.00,Sunday
9,36628080.688661225
2,1, 1, 1, 0, 3, 0.00,10.00,Sunday
9,38090294.51663103
2,1, 1, 1, 0, 3,10.00,20.00,Sunday
9,38148471.47994189
2,1, 1, 1, 0, 3,20.00,30.00,Sunday
9,38526477.82969698
2,1, 1, 1, 0, 3,30.00,40.00,Sunday
9,38894695.7820578
2,1, 1, 1, 0, 3,40.00,50.00,Sunday
9,39473283.9994905
2,1, 1, 1, 0, 3,50.00,60.00,Sunday
9,39784838.46844399
2,1, 1, 1, 0, 4, 0.00,10.00,Sunday
9,39823622.78879345
2,1, 1, 1, 0, 4,10.00,20.00,Sunday
9,39573667.9525289
2,1, 1, 1, 0, 4,20.00,30.00,Sunday
9,39236954.72062134
2,1, 1, 1, 0, 4,30.00,40.00,Sunday
9,39288483.25053053
2,1, 1, 1, 0, 4,40.00,50.00,Sunday
9,38505037.77250363
2,1, 1, 1, 0, 4,50.00,60.00,Sunday
9,38112605.96696365
2,1, 1, 1, 0, 5, 0.00,10.00,Sunday
9,38330197.24347381
2,1, 1, 1, 0, 5,10.00,20.00,Sunday
9,38703660.542561434
2,1, 1, 1, 0, 5,20.00,30.00,Sunday
9,38138546.9707661
2,1, 1, 1, 0, 5,30.00,40.00,Sunday
9,38011226.20091261
2,1, 1, 1, 0, 5,40.00,50.00,Sunday
9,37873932.41195653
2,1, 1, 1, 0, 5,50.00,60.00,Sunday
9,38142908.88878118
2,1, 1, 1, 0, 6, 0.00,10.00,Sunday
9,37945946.54520811
2,1, 1, 1, 0, 6,10.00,20.00,Sunday
9,38019801.54531184
2,1, 1, 1, 0, 6,20.00,30.00,Sunday
9,38072235.20373796
2,1, 1, 1, 0, 6,30.00,40.00,Sunday
9,38143560.57921656
2,1, 1, 1, 0, 6,40.00,50.00,Sunday
9,38551043.72578613
2,1, 1, 1, 0, 6,50.00,60.00,Sunday
9,38210532.46036546
2,1, 1, 1, 0, 7, 0.00,10.00,Sunday
9,37959008.18763193
2,1, 1, 1, 0, 7,10.00,20.00,Sunday
9,37620509.81890313
2,1, 1, 1, 0, 7,20.00,30.00,Sunday
9,37671888.56852731
2,1, 1, 1, 0, 7,30.00,40.00,Sunday
9,36904181.997546196
2,1, 1, 1, 0, 7,40.00,50.00,Sunday
9,36541260.114960685
2,1, 1, 1, 0, 7,50.00,60.00,Sunday
9,36180750.82226836
2,1, 1, 1, 0, 8, 0.00,10.00,Sunday
9,36632865.887529835
2,1, 1, 1, 0, 8,10.00,20.00,Sunday
9,36333435.119412065
2,1, 1, 1, 0, 8,20.00,30.00,Sunday
9,36456326.065803684
2,1, 1, 1, 0, 8,30.00,40.00,Sunday
9,36579692.86255051
2,1, 1, 1, 0, 8,40.00,50.00,Sunday
9,35994720.195176765
2,1, 1, 1, 0, 8,50.00,60.00,Sunday
9,35094402.92835933
2,1, 1, 1, 0, 9, 0.00,10.00,Sunday
9,37330488.00726912
2,1, 1, 1, 0, 9,10.00,20.00,Sunday
9,34531907.653878696
2,1, 1, 1, 0, 9,20.00,30.00,Sunday
9,33772590.984885335
2,1, 1, 1, 0, 9,30.00,40.00,Sunday
9,33341149.743222896
2,1, 1, 1, 0, 9,40.00,50.00,Sunday
9,33283365.0992197
2,1, 1, 1, 0, 9,50.00,60.00,Sunday
9,32474596.369346958
2,1, 1, 1, 0,10, 0.00,10.00,Sunday
9,154256259.10682917
2,1, 1, 1, 0,10,10.00,20.00,Sunday
9,123563254.38112523
2,1, 1, 1, 0,10,20.00,30.00,Sunday
9,123005242.50028495
2,1, 1, 1, 0,10,30.00,40.00,Sunday
9,120246674.71888587
2,1, 1, 1, 0,10,40.00,50.00,Sunday
9,125044256.61194453
2,1, 1, 1, 0,10,50.00,60.00,Sunday
9,128648041.48993477
2,1, 1, 1, 0,11, 0.00,10.00,Sunday
9,157166439.61236873
2,1, 1, 1, 0,11,10.00,20.00,Sunday
9,109172454.10169749
2,1, 1, 1, 0,11,20.00,30.00,Sunday
9,122315079.11734131
2,1, 1, 1, 0,11,30.00,40.00,Sunday
9,122399162.30077472
2,1, 1, 1, 0,11,40.00,50.00,Sunday
9,124638196.00762798
2,1, 1, 1, 0,11,50.00,60.00,Sunday
9,126179672.5664414
2,1, 1, 1, 0,12, 0.00,10.00,Sunday
9,108645403.20561332
2,1, 1, 1, 0,12,10.00,20.00,Sunday
9,123893670.35759506
2,1, 1, 1, 0,12,20.00,30.00,Sunday
9,118660690.2688883
2,1, 1, 1, 0,12,30.00,40.00,Sunday
9,117402432.27590097
2,1, 1, 1, 0,12,40.00,50.00,Sunday
9,111648781.01484364
2,1, 1, 1, 0,12,50.00,60.00,Sunday
9,114278892.54442656
2,1, 1, 1, 0,13, 0.00,10.00,Sunday
9,107061458.5957724
2,1, 1, 1, 0,13,10.00,20.00,Sunday
9,111504332.2360247
2,1, 1, 1, 0,13,20.00,30.00,Sunday
9,101309015.79201035
2,1, 1, 1, 0,13,30.00,40.00,Sunday
9,114269878.61550683
2,1, 1, 1, 0,13,40.00,50.00,Sunday
9,108852272.67606573
2,1, 1, 1, 0,13,50.00,60.00,Sunday
9,113602457.66548091
2,1, 1, 1, 0,14, 0.00,10.00,Sunday
9,107455694.32446332
2,1, 1, 1, 0,14,10.00,20.00,Sunday
9,114868176.59305495
2,1, 1, 1, 0,14,20.00,30.00,Sunday
9,109003714.93090904
2,1, 1, 1, 0,14,30.00,40.00,Sunday
9,118367245.15846078
2,1, 1, 1, 0,14,40.00,50.00,Sunday
9,113977875.46080613
2,1, 1, 1, 0,14,50.00,60.00,Sunday
9,120086459.3740705
2,1, 1, 1, 0,15, 0.00,10.00,Sunday
9,114793753.00810048
2,1, 1, 1, 0,15,10.00,20.00,Sunday
9,120545973.97478825
2,1, 1, 1, 0,15,20.00,30.00,Sunday
9,102100687.8522377
2,1, 1, 1, 0,15,30.00,40.00,Sunday
9,114081602.42269394
2,1, 1, 1, 0,15,40.00,50.00,Sunday
9,112327765.54967263
2,1, 1, 1, 0,15,50.00,60.00,Sunday
9,114043859.81545034
2,1, 1, 1, 0,16, 0.00,10.00,Sunday
9,116501002.87135088
2,1, 1, 1, 0,16,10.00,20.00,Sunday
9,118367406.90327796
2,1, 1, 1, 0,16,20.00,30.00,Sunday
9,116935266.2106758
2,1, 1, 1, 0,16,30.00,40.00,Sunday
9,122630496.13391548
2,1, 1, 1, 0,16,40.00,50.00,Sunday
9,124794714.35559359
2,1, 1, 1, 0,16,50.00,60.00,Sunday
9,124155763.02508873
2,1, 1, 1, 0,17, 0.00,10.00,Sunday
9,132593717.3011353
2,1, 1, 1, 0,17,10.00,20.00,Sunday
9,141365000.71788186
2,1, 1, 1, 0,17,20.00,30.00,Sunday
9,130608497.06235251
2,1, 1, 1, 0,17,30.00,40.00,Sunday
9,150810750.89639416
2,1, 1, 1, 0,17,40.00,50.00,Sunday
9,143075562.45637047
2,1, 1, 1, 0,17,50.00,60.00,Sunday
9,144385645.2010384
2,1, 1, 1, 0,18, 0.00,10.00,Sunday
9,149443682.8513601
2,1, 1, 1, 0,18,10.00,20.00,Sunday
9,150110951.11832947
2,1, 1, 1, 0,18,20.00,30.00,Sunday
9,149474474.09116483
2,1, 1, 1, 0,18,30.00,40.00,Sunday
9,149715642.55198854
2,1, 1, 1, 0,18,40.00,50.00,Sunday
9,148448918.06873116
2,1, 1, 1, 0,18,50.00,60.00,Sunday
9,150365696.48637578
2,1, 1, 1, 0,19, 0.00,10.00,Sunday
9,150883359.44137245
2,1, 1, 1, 0,19,10.00,20.00,Sunday
9,150226217.70742044
2,1, 1, 1, 0,19,20.00,30.00,Sunday
9,148532268.2086449
2,1, 1, 1, 0,19,30.00,40.00,Sunday
9,155516072.88685963
2,1, 1, 1, 0,19,40.00,50.00,Sunday
9,153168049.86535287
2,1, 1, 1, 0,19,50.00,60.00,Sunday
9,151723299.58113703
2,1, 1, 1, 0,20, 0.00,10.00,Sunday
9,10985034.281010106
2,1, 1, 1, 0,20,10.00,20.00,Sunday
9,12551612.521154605
2,1, 1, 1, 0,20,20.00,30.00,Sunday
9,13973962.48299008
2,1, 1, 1, 0,20,30.00,40.00,Sunday
9,14955314.622632433
2,1, 1, 1, 0,20,40.00,50.00,Sunday
9,16236997.898163537
2,1, 1, 1, 0,20,50.00,60.00,Sunday
9,23379367.755665984
2,1, 1, 1, 0,21, 0.00,10.00,Sunday
9,38998310.39631404
2,1, 1, 1, 0,21,10.00,20.00,Sunday
9,32137275.20136966
2,1, 1, 1, 0,21,20.00,30.00,Sunday
9,34670184.9903336
2,1, 1, 1, 0,21,30.00,40.00,Sunday
9,35835648.91210132
2,1, 1, 1, 0,21,40.00,50.00,Sunday
9,35799965.48983969
2,1, 1, 1, 0,21,50.00,60.00,Sunday
9,36099008.48496745
2,1, 1, 1, 0,22, 0.00,10.00,Sunday
9,39536265.02107784
2,1, 1, 1, 0,22,10.00,20.00,Sunday
9,40341836.037618585
2,1, 1, 1, 0,22,20.00,30.00,Sunday
9,40534643.665811814
2,1, 1, 1, 0,22,30.00,40.00,Sunday
9,40321312.9330222
2,1, 1, 1, 0,22,40.00,50.00,Sunday
9,40271675.09770771
2,1, 1, 1, 0,22,50.00,60.00,Sunday
9,40159483.341455884
2,1, 1, 1, 0,23, 0.00,10.00,Sunday
9,42994926.815353826
2,1, 1, 1, 0,23,10.00,20.00,Sunday
9,43752681.5079214
2,1, 1, 1, 0,23,20.00,30.00,Sunday
9,44703409.46302456
2,1, 1, 1, 0,23,30.00,40.00,Sunday
9,45621727.8638511
2,1, 1, 1, 0,23,40.00,50.00,Sunday
9,46915019.25915504
2,1, 1, 1, 0,23,50.00,60.00,Sunday
9,47358472.69029714
2,1, 1, 1, 0,24, 0.00,10.00,Sunday
9,47939640.67298134
2,1, 1, 1, 0,24,10.00,20.00,Sunday
9,48037844.16049453
2,1, 1, 1, 0,24,20.00,30.00,Sunday
9,48424118.361955374
2,1, 1, 1, 0,24,30.00,40.00,Sunday
9,48103113.35195924
2,1, 1, 1, 0,24,40.00,50.00,Sunday
9,48048974.74021067
2,1, 1, 1, 0,24,50.00,60.00,Sunday
9,48029244.309532344
2,2, 1, 2, 0, 1, 0.00,10.00,Monday
9,47823684.36255726
2,2, 1, 2, 0, 1,10.00,20.00,Monday
9,47879023.82322055
2,2, 1, 2, 0, 1,20.00,30.00,Monday
9,47098926.705659166
2,2, 1, 2, 0, 1,30.00,40.00,Monday
9,46722193.76455796
2,2, 1, 2, 0, 1,40.00,50.00,Monday
9,46340333.00881076
2,2, 1, 2, 0, 1,50.00,60.00,Monday
9,46366962.760382876
2,2, 1, 2, 0, 2, 0.00,10.00,Monday
9,45645575.55149761
2,2, 1, 2, 0, 2,10.00,20.00,Monday
9,45279829.166967265
2,2, 1, 2, 0, 2,20.00,30.00,Monday
9,44904882.8918553
2,2, 1, 2, 0, 2,30.00,40.00,Monday
9,44940877.10838631
2,2, 1, 2, 0, 2,40.00,50.00,Monday
9,44149626.69203496
2,2, 1, 2, 0, 2,50.00,60.00,Monday
9,43769482.62485568
2,2, 1, 2, 0, 3, 0.00,10.00,Monday
9,44228098.078450456
2,2, 1, 2, 0, 3,10.00,20.00,Monday
9,44880153.33843015
2,2, 1, 2, 0, 3,20.00,30.00,Monday
9,45263966.83416055
2,2, 1, 2, 0, 3,30.00,40.00,Monday
9,45500981.35997062
2,2, 1, 2, 0, 3,40.00,50.00,Monday
9,45923611.40237035
2,2, 1, 2, 0, 3,50.00,60.00,Monday
9,46399237.74396205
2,2, 1, 2, 0, 4, 0.00,10.00,Monday
9,47350903.54639707
2,2, 1, 2, 0, 4,10.00,20.00,Monday
9,47432984.77553487
2,2, 1, 2, 0, 4,20.00,30.00,Monday
9,47911671.60757444
2,2, 1, 2, 0, 4,30.00,40.00,Monday
9,48386435.28344012
2,2, 1, 2, 0, 4,40.00,50.00,Monday
9,49268646.02523335
2,2, 1, 2, 0, 4,50.00,60.00,Monday
9,49325635.229008704
2,2, 1, 2, 0, 5, 0.00,10.00,Monday
9,49490319.343686685
2,2, 1, 2, 0, 5,10.00,20.00,Monday
9,49705933.69838858
2,2, 1, 2, 0, 5,20.00,30.00,Monday
9,50330413.550902866
2,2, 1, 2, 0, 5,30.00,40.00,Monday
9,50129156.81702492
2,2, 1, 2, 0, 5,40.00,50.00,Monday
9,50342330.17001267
2,2, 1, 2, 0, 5,50.00,60.00,Monday
9,50556913.12264171
2,2, 1, 2, 0, 6, 0.00,10.00,Monday
9,50222083.13138185
2,2, 1, 2, 0, 6,10.00,20.00,Monday
9,50165521.78565361
2,2, 1, 2, 0, 6,20.00,30.00,Monday
9,49335969.87884675
2,2, 1, 2, 0, 6,30.00,40.00,Monday
9,48917657.30017296
2,2, 1, 2, 0, 6,40.00,50.00,Monday
9,48493242.55920031
2,2, 1, 2, 0, 6,50.00,60.00,Monday
9,48474993.16751954
2,2, 1, 2, 0, 7, 0.00,10.00,Monday
9,62985876.642123036
2,2, 1, 2, 0, 7,10.00,20.00,Monday
9,56289466.08447353
2,2, 1, 2, 0, 7,20.00,30.00,Monday
9,52107580.31585926
2,2, 1, 2, 0, 7,30.00,40.00,Monday
9,51808183.50265586
2,2, 1, 2, 0, 7,40.00,50.00,Monday
9,53057284.21524419
2,2, 1, 2, 0, 7,50.00,60.00,Monday
9,54039012.38528179
2,2, 1, 2, 0, 8, 0.00,10.00,Monday
9,107555136.65081516
2,2, 1, 2, 0, 8,10.00,20.00,Monday
9,85973563.60982189
2,2, 1, 2, 0, 8,20.00,30.00,Monday
9,53543060.24234816
2,2, 1, 2, 0, 8,30.00,40.00,Monday
9,58826148.51420869
2,2, 1, 2, 0, 8,40.00,50.00,Monday
9,76696750.48972514
2,2, 1, 2, 0, 8,50.00,60.00,Monday
9,53815051.61740888
2,2, 1, 2, 0, 9, 0.00,10.00,Monday
9,95774170.42731544
2,2, 1, 2, 0, 9,10.00,20.00,Monday
9,89433240.33122492
2,2, 1, 2, 0, 9,20.00,30.00,Monday
9,76750125.85018583
2,2, 1, 2, 0, 9,30.00,40.00,Monday
9,66954916.17614403
2,2, 1, 2, 0, 9,40.00,50.00,Monday
9,78997947.88353582
2,2, 1, 2, 0, 9,50.00,60.00,Monday
9,63077745.638632864
2,2, 1, 2, 0,10, 0.00,10.00,Monday
9,151011716.4152444
2,2, 1, 2, 0,10,10.00,20.00,Monday
9,145406238.46412355
2,2, 1, 2, 0,10,20.00,30.00,Monday
9,141514449.5960572
2,2, 1, 2, 0,10,30.00,40.00,Monday
9,139895670.08658198
2,2, 1, 2, 0,10,40.00,50.00,Monday
9,138974013.54815722
2,2, 1, 2, 0,10,50.00,60.00,Monday
9,138038255.77846643
2,2, 1, 2, 0,11, 0.00,10.00,Monday
9,135514647.85763073
2,2, 1, 2, 0,11,10.00,20.00,Monday
9,128297526.23824185
2,2, 1, 2, 0,11,20.00,30.00,Monday
9,138810227.0150395
2,2, 1, 2, 0,11,30.00,40.00,Monday
9,137755669.08476532
2,2, 1, 2, 0,11,40.00,50.00,Monday
9,138303532.94209912
2,2, 1, 2, 0,11,50.00,60.00,Monday
9,137147848.7972141
2,2, 1, 2, 0,12, 0.00,10.00,Monday
9,123642348.44131362
2,2, 1, 2, 0,12,10.00,20.00,Monday
9,125935822.10069793
2,2, 1, 2, 0,12,20.00,30.00,Monday
9,121081508.92018145
2,2, 1, 2, 0,12,30.00,40.00,Monday
9,125285378.3155128
2,2, 1, 2, 0,12,40.00,50.00,Monday
9,114810394.20457904
2,2, 1, 2, 0,12,50.00,60.00,Monday
9,122524172.70645767
2,2, 1, 2, 0,13, 0.00,10.00,Monday
9,123082681.93535316
2,2, 1, 2, 0,13,10.00,20.00,Monday
9,120539793.17040297
2,2, 1, 2, 0,13,20.00,30.00,Monday
9,109965310.3554022
2,2, 1, 2, 0,13,30.00,40.00,Monday
9,127240225.93943489
2,2, 1, 2, 0,13,40.00,50.00,Monday
9,120332207.63247557
2,2, 1, 2, 0,13,50.00,60.00,Monday
9,118917623.42217667
2,2, 1, 2, 0,14, 0.00,10.00,Monday
9,113199671.87139331
2,2, 1, 2, 0,14,10.00,20.00,Monday
9,115017257.53456116
2,2, 1, 2, 0,14,20.00,30.00,Monday
9,114866701.17189954
2,2, 1, 2, 0,14,30.00,40.00,Monday
9,115398124.4587886
2,2, 1, 2, 0,14,40.00,50.00,Monday
9,113276221.36858806
2,2, 1, 2, 0,14,50.00,60.00,Monday
9,117980056.44848423
2,2, 1, 2, 0,15, 0.00,10.00,Monday
9,120233229.90269056
2,2, 1, 2, 0,15,10.00,20.00,Monday
9,116814246.6133308
2,2, 1, 2, 0,15,20.00,30.00,Monday
9,112754695.26648316
2,2, 1, 2, 0,15,30.00,40.00,Monday
9,120101417.78777657
2,2, 1, 2, 0,15,40.00,50.00,Monday
9,108775075.41522947
2,2, 1, 2, 0,15,50.00,60.00,Monday
9,126092331.82687016
2,2, 1, 2, 0,16, 0.00,10.00,Monday
9,104438828.13267954
2,2, 1, 2, 0,16,10.00,20.00,Monday
9,119250448.13071346
2,2, 1, 2, 0,16,20.00,30.00,Monday
9,117596795.45143147
2,2, 1, 2, 0,16,30.00,40.00,Monday
9,117813041.02780244
2,2, 1, 2, 0,16,40.00,50.00,Monday
9,124201309.05785288
2,2, 1, 2, 0,16,50.00,60.00,Monday
9,126339365.33992136
2,2, 1, 2, 0,17, 0.00,10.00,Monday
9,129899499.69347113
2,2, 1, 2, 0,17,10.00,20.00,Monday
9,131699417.75492382
2,2, 1, 2, 0,17,20.00,30.00,Monday
9,126431523.95507626
2,2, 1, 2, 0,17,30.00,40.00,Monday
9,136785416.6235763
2,2, 1, 2, 0,17,40.00,50.00,Monday
9,134156015.06026238
2,2, 1, 2, 0,17,50.00,60.00,Monday
9,133265603.82005782
2,2, 1, 2, 0,18, 0.00,10.00,Monday
9,133854961.50964531
2,2, 1, 2, 0,18,10.00,20.00,Monday
9,134996930.85733518
2,2, 1, 2, 0,18,20.00,30.00,Monday
9,129247954.24388592
2,2, 1, 2, 0,18,30.00,40.00,Monday
9,138051202.49478868
2,2, 1, 2, 0,18,40.00,50.00,Monday
9,125737799.57293223
2,2, 1, 2, 0,18,50.00,60.00,Monday
9,140369664.25395036
2,2, 1, 2, 0,19, 0.00,10.00,Monday
9,124188648.7204952
2,2, 1, 2, 0,19,10.00,20.00,Monday
9,135356791.32533807
2,2, 1, 2, 0,19,20.00,30.00,Monday
9,137882797.75533968
2,2, 1, 2, 0,19,30.00,40.00,Monday
9,136080104.12906948
2,2, 1, 2, 0,19,40.00,50.00,Monday
9,133883972.26036273
2,2, 1, 2, 0,19,50.00,60.00,Monday
9,134889591.10396928
2,2, 1, 2, 0,20, 0.00,10.00,Monday
9,117237337.12644407
2,2, 1, 2, 0,20,10.00,20.00,Monday
9,125487594.5182552
2,2, 1, 2, 0,20,20.00,30.00,Monday
9,123382202.83292721
2,2, 1, 2, 0,20,30.00,40.00,Monday
9,122843807.51976407
2,2, 1, 2, 0,20,40.00,50.00,Monday
9,122938471.38607329
2,2, 1, 2, 0,20,50.00,60.00,Monday
9,122698230.14238016
2,2, 1, 2, 0,21, 0.00,10.00,Monday
9,122483472.38782996
2,2, 1, 2, 0,21,10.00,20.00,Monday
9,122524948.60861076
2,2, 1, 2, 0,21,20.00,30.00,Monday
9,122182804.29394564
2,2, 1, 2, 0,21,30.00,40.00,Monday
9,121686661.27557917
2,2, 1, 2, 0,21,40.00,50.00,Monday
9,120906771.31459315
2,2, 1, 2, 0,21,50.00,60.00,Monday
9,120952263.16891716
2,2, 1, 2, 0,22, 0.00,10.00,Monday
9,1290079.1397195188
2,2, 1, 2, 0,22,10.00,20.00,Monday
9,1704357.7554921587
2,2, 1, 2, 0,22,20.00,30.00,Monday
9,1290079.1397195188
2,2, 1, 2, 0,22,30.00,40.00,Monday
9,6089885.204689552
2,2, 1, 2, 0,22,40.00,50.00,Monday
9,7208052.467304663
2,2, 1, 2, 0,22,50.00,60.00,Monday
9,8158599.188502043
2,2, 1, 2, 0,23, 0.00,10.00,Monday
9,11582339.461611098
2,2, 1, 2, 0,23,10.00,20.00,Monday
9,12423548.573316183
2,2, 1, 2, 0,23,20.00,30.00,Monday
9,15342163.372481868
2,2, 1, 2, 0,23,30.00,40.00,Monday
9,23139633.538813736
2,2, 1, 2, 0,23,40.00,50.00,Monday
9,26188780.155452363
2,2, 1, 2, 0,23,50.00,60.00,Monday
9,25389942.5894258
2,2, 1, 2, 0,24, 0.00,10.00,Monday
9,29903102.794452075
2,2, 1, 2, 0,24,10.00,20.00,Monday
9,30985539.997674834
2,2, 1, 2, 0,24,20.00,30.00,Monday
9,31806016.710445847
2,2, 1, 2, 0,24,30.00,40.00,Monday
9,31723265.464861352
2,2, 1, 2, 0,24,40.00,50.00,Monday
9,31950967.20657712
2,2, 1, 2, 0,24,50.00,60.00,Monday
9,32105255.785867892
2,3, 1, 3, 0, 1, 0.00,10.00,Tuesday
9,34138522.934622735
2,3, 1, 3, 0, 1,10.00,20.00,Tuesday
9,34112218.40401705
2,3, 1, 3, 0, 1,20.00,30.00,Tuesday
9,34086945.33833667
2,3, 1, 3, 0, 1,30.00,40.00,Tuesday
9,34083286.723597325
2,3, 1, 3, 0, 1,40.00,50.00,Tuesday
9,34039981.50077343
2,3, 1, 3, 0, 1,50.00,60.00,Tuesday
9,34373441.40821386
2,3, 1, 3, 0, 2, 0.00,10.00,Tuesday
9,35276851.12993382
2,3, 1, 3, 0, 2,10.00,20.00,Tuesday
9,36021375.676722616
2,3, 1, 3, 0, 2,20.00,30.00,Tuesday
9,36672307.43627757
2,3, 1, 3, 0, 2,30.00,40.00,Tuesday
9,37720604.94186212
2,3, 1, 3, 0, 2,40.00,50.00,Tuesday
9,37935105.25363015
2,3, 1, 3, 0, 2,50.00,60.00,Tuesday
9,38550158.121931165
2,3, 1, 3, 0, 3, 0.00,10.00,Tuesday
9,38802498.684945285
2,3, 1, 3, 0, 3,10.00,20.00,Tuesday
9,39219698.11359089
2,3, 1, 3, 0, 3,20.00,30.00,Tuesday
9,38768875.026977085
2,3, 1, 3, 0, 3,30.00,40.00,Tuesday
9,38722780.122984886
2,3, 1, 3, 0, 3,40.00,50.00,Tuesday
9,38669878.4398478
2,3, 1, 3, 0, 3,50.00,60.00,Tuesday
9,38848921.66930241
2,3, 1, 3, 0, 4, 0.00,10.00,Tuesday
9,39742739.11788595
2,3, 1, 3, 0, 4,10.00,20.00,Tuesday
9,40413400.360496946
2,3, 1, 3, 0, 4,20.00,30.00,Tuesday
9,41239641.263035595
2,3, 1, 3, 0, 4,30.00,40.00,Tuesday
9,42061697.41873953
2,3, 1, 3, 0, 4,40.00,50.00,Tuesday
9,43286393.24083487
2,3, 1, 3, 0, 4,50.00,60.00,Tuesday
9,43693076.05440889
2,3, 1, 3, 0, 5, 0.00,10.00,Tuesday
9,43633128.1634572
2,3, 1, 3, 0, 5,10.00,20.00,Tuesday
9,43517142.49467006
2,3, 1, 3, 0, 5,20.00,30.00,Tuesday
9,43803054.13582797
2,3, 1, 3, 0, 5,30.00,40.00,Tuesday
9,43265511.917304344
2,3, 1, 3, 0, 5,40.00,50.00,Tuesday
9,43137078.65671355
2,3, 1, 3, 0, 5,50.00,60.00,Tuesday
9,43007806.660477005
2,3, 1, 3, 0, 6, 0.00,10.00,Tuesday
9,43708552.53209836
2,3, 1, 3, 0, 6,10.00,20.00,Tuesday
9,43550988.777179874
2,3, 1, 3, 0, 6,20.00,30.00,Tuesday
9,43802998.95364157
2,3, 1, 3, 0, 6,30.00,40.00,Tuesday
9,44049175.67199809
2,3, 1, 3, 0, 6,40.00,50.00,Tuesday
9,44394691.91823891
2,3, 1, 3, 0, 6,50.00,60.00,Tuesday
9,44846707.40020244
2,3, 1, 3, 0, 7, 0.00,10.00,Tuesday
9,53040831.84693754
2,3, 1, 3, 0, 7,10.00,20.00,Tuesday
9,49235822.024889745
2,3, 1, 3, 0, 7,20.00,30.00,Tuesday
9,44810573.45723922
2,3, 1, 3, 0, 7,30.00,40.00,Tuesday
9,42564359.23987075
2,3, 1, 3, 0, 7,40.00,50.00,Tuesday
9,44153888.634092
2,3, 1, 3, 0, 7,50.00,60.00,Tuesday
9,41892935.16827432
2,3, 1, 3, 0, 8, 0.00,10.00,Tuesday
9,107032320.32145302
2,3, 1, 3, 0, 8,10.00,20.00,Tuesday
9,75028351.76445782
2,3, 1, 3, 0, 8,20.00,30.00,Tuesday
9,50993446.44243842
2,3, 1, 3, 0, 8,30.00,40.00,Tuesday
9,53169707.76142962
2,3, 1, 3, 0, 8,40.00,50.00,Tuesday
9,57790709.645726904
2,3, 1, 3, 0, 8,50.00,60.00,Tuesday
9,62557271.95336604
2,3, 1, 3, 0, 9, 0.00,10.00,Tuesday
9,93441254.42389494
2,3, 1, 3, 0, 9,10.00,20.00,Tuesday
9,90560508.00883888
2,3, 1, 3, 0, 9,20.00,30.00,Tuesday
9,72322875.45902503
2,3, 1, 3, 0, 9,30.00,40.00,Tuesday
9,70935534.5986087
2,3, 1, 3, 0, 9,40.00,50.00,Tuesday
9,59663250.84878451
2,3, 1, 3, 0, 9,50.00,60.00,Tuesday
9,67803958.22452232
2,3, 1, 3, 0,10, 0.00,10.00,Tuesday
9,132441558.60800646
2,3, 1, 3, 0,10,10.00,20.00,Tuesday
9,131854928.27291918
2,3, 1, 3, 0,10,20.00,30.00,Tuesday
9,131248309.77667129
2,3, 1, 3, 0,10,30.00,40.00,Tuesday
9,122589190.4408976
2,3, 1, 3, 0,10,40.00,50.00,Tuesday
9,131241363.09789395
2,3, 1, 3, 0,10,50.00,60.00,Tuesday
9,110922596.49347802
2,3, 1, 3, 0,11, 0.00,10.00,Tuesday
9,123610008.6670639
2,3, 1, 3, 0,11,10.00,20.00,Tuesday
9,122861812.87051964
2,3, 1, 3, 0,11,20.00,30.00,Tuesday
9,117719004.63553444
2,3, 1, 3, 0,11,30.00,40.00,Tuesday
9,118590159.20455956
2,3, 1, 3, 0,11,40.00,50.00,Tuesday
9,115133594.53502332
2,3, 1, 3, 0,11,50.00,60.00,Tuesday
9,114099982.04287915
2,3, 1, 3, 0,12, 0.00,10.00,Tuesday
9,108149361.52570392
2,3, 1, 3, 0,12,10.00,20.00,Tuesday
9,106188757.27532162
2,3, 1, 3, 0,12,20.00,30.00,Tuesday
9,105879872.09405342
2,3, 1, 3, 0,12,30.00,40.00,Tuesday
9,105184249.72037268
2,3, 1, 3, 0,12,40.00,50.00,Tuesday
9,104790702.08377738
2,3, 1, 3, 0,12,50.00,60.00,Tuesday
9,100957845.19473651
2,3, 1, 3, 0,13, 0.00,10.00,Tuesday
9,103464213.48257187
2,3, 1, 3, 0,13,10.00,20.00,Tuesday
9,92562571.68919998
2,3, 1, 3, 0,13,20.00,30.00,Tuesday
9,99053470.25840992
2,3, 1, 3, 0,13,30.00,40.00,Tuesday
9,96622430.0886666
2,3, 1, 3, 0,13,40.00,50.00,Tuesday
9,100680890.25437292
2,3, 1, 3, 0,13,50.00,60.00,Tuesday
9,84710675.99328777
2,3, 1, 3, 0,14, 0.00,10.00,Tuesday
9,96046718.69396275
2,3, 1, 3, 0,14,10.00,20.00,Tuesday
9,97937614.26576257
2,3, 1, 3, 0,14,20.00,30.00,Tuesday
9,88138531.3405785
2,3, 1, 3, 0,14,30.00,40.00,Tuesday
9,97216759.83580144
2,3, 1, 3, 0,14,40.00,50.00,Tuesday
9,98113132.65645617
2,3, 1, 3, 0,14,50.00,60.00,Tuesday
9,84467564.46322346
2,3, 1, 3, 0,15, 0.00,10.00,Tuesday
9,100199803.77215116
2,3, 1, 3, 0,15,10.00,20.00,Tuesday
9,75694625.47095141
2,3, 1, 3, 0,15,20.00,30.00,Tuesday
9,88522018.92288056
2,3, 1, 3, 0,15,30.00,40.00,Tuesday
9,85163956.18019764
2,3, 1, 3, 0,15,40.00,50.00,Tuesday
9,84138301.8321906
2,3, 1, 3, 0,15,50.00,60.00,Tuesday
9,84573540.28233418
2,3, 1, 3, 0,16, 0.00,10.00,Tuesday
9,79019831.10556978
2,3, 1, 3, 0,16,10.00,20.00,Tuesday
9,83367405.7405351
2,3, 1, 3, 0,16,20.00,30.00,Tuesday
9,83253916.77205205
2,3, 1, 3, 0,16,30.00,40.00,Tuesday
9,83060348.49910907
2,3, 1, 3, 0,16,40.00,50.00,Tuesday
9,81496689.00711188
2,3, 1, 3, 0,16,50.00,60.00,Tuesday
9,87115590.67576115
2,3, 1, 3, 0,17, 0.00,10.00,Tuesday
9,85678505.77296272
2,3, 1, 3, 0,17,10.00,20.00,Tuesday
9,86149298.3457293
2,3, 1, 3, 0,17,20.00,30.00,Tuesday
9,85598453.63375945
2,3, 1, 3, 0,17,30.00,40.00,Tuesday
9,84654678.6526292
2,3, 1, 3, 0,17,40.00,50.00,Tuesday
9,85595933.95510377
2,3, 1, 3, 0,17,50.00,60.00,Tuesday
9,82240079.10334875
2,3, 1, 3, 0,18, 0.00,10.00,Tuesday
9,88378167.93056345
2,3, 1, 3, 0,18,10.00,20.00,Tuesday
9,82320285.8644179
2,3, 1, 3, 0,18,20.00,30.00,Tuesday
9,86426714.25264521
2,3, 1, 3, 0,18,30.00,40.00,Tuesday
9,87451603.21806224
2,3, 1, 3, 0,18,40.00,50.00,Tuesday
9,83332812.41845576
2,3, 1, 3, 0,18,50.00,60.00,Tuesday
9,88653687.52345957
2,3, 1, 3, 0,19, 0.00,10.00,Tuesday
9,84089503.65075877
2,3, 1, 3, 0,19,10.00,20.00,Tuesday
9,88905333.9064903
2,3, 1, 3, 0,19,20.00,30.00,Tuesday
9,83156254.15002494
2,3, 1, 3, 0,19,30.00,40.00,Tuesday
9,86867850.56597227
2,3, 1, 3, 0,19,40.00,50.00,Tuesday
9,88310371.49710637
2,3, 1, 3, 0,19,50.00,60.00,Tuesday
9,81947179.64252615
2,3, 1, 3, 0,20, 0.00,10.00,Tuesday
9,77523747.70513174
2,3, 1, 3, 0,20,10.00,20.00,Tuesday
9,83886945.27642657
2,3, 1, 3, 0,20,20.00,30.00,Tuesday
9,78900848.54521474
2,3, 1, 3, 0,20,30.00,40.00,Tuesday
9,87144994.27741556
2,3, 1, 3, 0,20,40.00,50.00,Tuesday
9,79279968.56566827
2,3, 1, 3, 0,20,50.00,60.00,Tuesday
9,93485018.30160807
2,3, 1, 3, 0,21, 0.00,10.00,Tuesday
9,76991762.60828017
2,3, 1, 3, 0,21,10.00,20.00,Tuesday
9,87087340.2033704
2,3, 1, 3, 0,21,20.00,30.00,Tuesday
9,86564124.89795369
2,3, 1, 3, 0,21,30.00,40.00,Tuesday
9,87503852.16154146
2,3, 1, 3, 0,21,40.00,50.00,Tuesday
9,87944491.82628298
2,3, 1, 3, 0,21,50.00,60.00,Tuesday
9,89198363.20864707
2,3, 1, 3, 0,22, 0.00,10.00,Tuesday
9,1290079.1397195188
2,3, 1, 3, 0,22,10.00,20.00,Tuesday
9,1704148.688740831
2,3, 1, 3, 0,22,20.00,30.00,Tuesday
9,1290079.1397195188
2,3, 1, 3, 0,22,30.00,40.00,Tuesday
9,1290079.1397195188
2,3, 1, 3, 0,22,40.00,50.00,Tuesday
9,3416766.85258267
2,3, 1, 3, 0,22,50.00,60.00,Tuesday
9,6472412.404227095
2,3, 1, 3, 0,23, 0.00,10.00,Tuesday
9,7063268.4485208085
2,3, 1, 3, 0,23,10.00,20.00,Tuesday
9,8224762.679495637
2,3, 1, 3, 0,23,20.00,30.00,Tuesday
9,12938895.554745495
2,3, 1, 3, 0,23,30.00,40.00,Tuesday
9,17459297.75567688
2,3, 1, 3, 0,23,40.00,50.00,Tuesday
9,13805865.393612213
2,3, 1, 3, 0,23,50.00,60.00,Tuesday
9,14931468.382195754
2,3, 1, 3, 0,24, 0.00,10.00,Tuesday
9,18525737.15476981
2,3, 1, 3, 0,24,10.00,20.00,Tuesday
9,19701939.399148583
2,3, 1, 3, 0,24,20.00,30.00,Tuesday
9,20658932.552818473
2,3, 1, 3, 0,24,30.00,40.00,Tuesday
9,20728374.592543293
2,3, 1, 3, 0,24,40.00,50.00,Tuesday
9,21118297.223887272
2,3, 1, 3, 0,24,50.00,60.00,Tuesday
9,21440633.375244483
2,4, 1, 4, 0, 1, 0.00,10.00,Wednesday
9,23741309.53145606
2,4, 1, 4, 0, 1,10.00,20.00,Wednesday
9,23837440.77507819
2,4, 1, 4, 0, 1,20.00,30.00,Wednesday
9,24087015.53603835
2,4, 1, 4, 0, 1,30.00,40.00,Wednesday
9,24301227.274761815
2,4, 1, 4, 0, 1,40.00,50.00,Wednesday
9,24795002.512701023
2,4, 1, 4, 0, 1,50.00,60.00,Wednesday
9,24709238.44811873
2,4, 1, 4, 0, 2, 0.00,10.00,Wednesday
9,25686477.942998838
2,4, 1, 4, 0, 2,10.00,20.00,Wednesday
9,26115006.455663264
2,4, 1, 4, 0, 2,20.00,30.00,Wednesday
9,26435381.141817775
2,4, 1, 4, 0, 2,30.00,40.00,Wednesday
9,27144029.938276757
2,4, 1, 4, 0, 2,40.00,50.00,Wednesday
9,27020860.322808597
2,4, 1, 4, 0, 2,50.00,60.00,Wednesday
9,27290743.385931905
2,4, 1, 4, 0, 3, 0.00,10.00,Wednesday
9,28041932.10539096
2,4, 1, 4, 0, 3,10.00,20.00,Wednesday
9,28941203.44390702
2,4, 1, 4, 0, 3,20.00,30.00,Wednesday
9,28983604.279081535
2,4, 1, 4, 0, 3,30.00,40.00,Wednesday
9,29436815.284735207
2,4, 1, 4, 0, 3,40.00,50.00,Wednesday
9,29890746.925536416
2,4, 1, 4, 0, 3,50.00,60.00,Wednesday
9,30758167.95215565
2,4, 1, 4, 0, 4, 0.00,10.00,Wednesday
9,30571450.917727124
2,4, 1, 4, 0, 4,10.00,20.00,Wednesday
9,30572365.090920467
2,4, 1, 4, 0, 4,20.00,30.00,Wednesday
9,30537849.393336594
2,4, 1, 4, 0, 4,30.00,40.00,Wednesday
9,30717638.54607461
2,4, 1, 4, 0, 4,40.00,50.00,Wednesday
9,30645632.889306404
2,4, 1, 4, 0, 4,50.00,60.00,Wednesday
9,30406576.992660206
2,4, 1, 4, 0, 5, 0.00,10.00,Wednesday
9,30776177.098628197
2,4, 1, 4, 0, 5,10.00,20.00,Wednesday
9,30931210.252986316
2,4, 1, 4, 0, 5,20.00,30.00,Wednesday
9,31461333.23052332
2,4, 1, 4, 0, 5,30.00,40.00,Wednesday
9,31172433.345592868
2,4, 1, 4, 0, 5,40.00,50.00,Wednesday
9,31285945.563308913
2,4, 1, 4, 0, 5,50.00,60.00,Wednesday
9,31395609.971535843
2,4, 1, 4, 0, 6, 0.00,10.00,Wednesday
9,31996407.66396539
2,4, 1, 4, 0, 6,10.00,20.00,Wednesday
9,31527502.553717423
2,4, 1, 4, 0, 6,20.00,30.00,Wednesday
9,31424810.981078126
2,4, 1, 4, 0, 6,30.00,40.00,Wednesday
9,31312517.597840406
2,4, 1, 4, 0, 6,40.00,50.00,Wednesday
9,31606791.185485534
2,4, 1, 4, 0, 6,50.00,60.00,Wednesday
9,31067701.571530595
2,4, 1, 4, 0, 7, 0.00,10.00,Wednesday
9,40970141.86808455
2,4, 1, 4, 0, 7,10.00,20.00,Wednesday
9,38156012.44689264
2,4, 1, 4, 0, 7,20.00,30.00,Wednesday
9,36362515.501793824
2,4, 1, 4, 0, 7,30.00,40.00,Wednesday
9,33010859.207767677
2,4, 1, 4, 0, 7,40.00,50.00,Wednesday
9,33735282.424164265
2,4, 1, 4, 0, 7,50.00,60.00,Wednesday
9,34200157.48308595
2,4, 1, 4, 0, 8, 0.00,10.00,Wednesday
9,88961069.10521933
2,4, 1, 4, 0, 8,10.00,20.00,Wednesday
9,66845536.53537918
2,4, 1, 4, 0, 8,20.00,30.00,Wednesday
9,44188245.63158041
2,4, 1, 4, 0, 8,30.00,40.00,Wednesday
9,43537185.10807337
2,4, 1, 4, 0, 8,40.00,50.00,Wednesday
9,44617608.49732889
2,4, 1, 4, 0, 8,50.00,60.00,Wednesday
9,46345415.16894605
2,4, 1, 4, 0, 9, 0.00,10.00,Wednesday
9,77136591.70386712
2,4, 1, 4, 0, 9,10.00,20.00,Wednesday
9,69851081.14981724
2,4, 1, 4, 0, 9,20.00,30.00,Wednesday
9,58137103.416016646
2,4, 1, 4, 0, 9,30.00,40.00,Wednesday
9,54319209.923004724
2,4, 1, 4, 0, 9,40.00,50.00,Wednesday
9,36281077.0029767
2,4, 1, 4, 0, 9,50.00,60.00,Wednesday
9,51027484.42754779
2,4, 1, 4, 0,10, 0.00,10.00,Wednesday
9,104023408.90846398
2,4, 1, 4, 0,10,10.00,20.00,Wednesday
9,105483730.32105249
2,4, 1, 4, 0,10,20.00,30.00,Wednesday
9,95615747.5104377
2,4, 1, 4, 0,10,30.00,40.00,Wednesday
9,93454901.9189216
2,4, 1, 4, 0,10,40.00,50.00,Wednesday
9,87792526.51158603
2,4, 1, 4, 0,10,50.00,60.00,Wednesday
9,90001496.3702857
2,4, 1, 4, 0,11, 0.00,10.00,Wednesday
9,78251482.45034246
2,4, 1, 4, 0,11,10.00,20.00,Wednesday
9,87335192.98543243
2,4, 1, 4, 0,11,20.00,30.00,Wednesday
9,71856120.01222645
2,4, 1, 4, 0,11,30.00,40.00,Wednesday
9,81067467.6078967
2,4, 1, 4, 0,11,40.00,50.00,Wednesday
9,79636132.16813652
2,4, 1, 4, 0,11,50.00,60.00,Wednesday
9,75405468.351973
2,4, 1, 4, 0,12, 0.00,10.00,Wednesday
9,78448928.27929565
2,4, 1, 4, 0,12,10.00,20.00,Wednesday
9,77242078.26882085
2,4, 1, 4, 0,12,20.00,30.00,Wednesday
9,74982764.0555049
2,4, 1, 4, 0,12,30.00,40.00,Wednesday
9,73425770.75291698
2,4, 1, 4, 0,12,40.00,50.00,Wednesday
9,76474271.42355014
2,4, 1, 4, 0,12,50.00,60.00,Wednesday
9,76707042.62986535
2,4, 1, 4, 0,13, 0.00,10.00,Wednesday
9,77078914.4675645
2,4, 1, 4, 0,13,10.00,20.00,Wednesday
9,74784983.59274638
2,4, 1, 4, 0,13,20.00,30.00,Wednesday
9,77465504.54136027
2,4, 1, 4, 0,13,30.00,40.00,Wednesday
9,73782612.68189766
2,4, 1, 4, 0,13,40.00,50.00,Wednesday
9,77108169.14262664
2,4, 1, 4, 0,13,50.00,60.00,Wednesday
9,72890710.38080908
2,4, 1, 4, 0,14, 0.00,10.00,Wednesday
9,76802752.6303386
2,4, 1, 4, 0,14,10.00,20.00,Wednesday
9,73039400.35258187
2,4, 1, 4, 0,14,20.00,30.00,Wednesday
9,77166997.86957212
2,4, 1, 4, 0,14,30.00,40.00,Wednesday
9,73353764.6859729
2,4, 1, 4, 0,14,40.00,50.00,Wednesday
9,77748366.60119818
2,4, 1, 4, 0,14,50.00,60.00,Wednesday
9,73748380.79698521
2,4, 1, 4, 0,15, 0.00,10.00,Wednesday
9,77799328.6299169
2,4, 1, 4, 0,15,10.00,20.00,Wednesday
9,73639384.44289415
2,4, 1, 4, 0,15,20.00,30.00,Wednesday
9,77170822.43017785
2,4, 1, 4, 0,15,30.00,40.00,Wednesday
9,73206764.341108
2,4, 1, 4, 0,15,40.00,50.00,Wednesday