Program Version,EnergyPlus, Version 23.2.0-7636e6b3e9, YMD=2025.01.19 15:45
1,5,Environment Title[],Latitude[deg],Longitude[deg],Time Zone[],Elevation[m]
2,8,Day of Simulation[],Month[],Day of Month[],DST Indicator[1=yes 0=no],Hour[],StartMinute[],EndMinute[],DayType
3,5,Cumulative Day of Simulation[],Month[],Day of Month[],DST Indicator[1=yes 0=no],DayType  ! When Daily Report Variables Requested
4,2,Cumulative Days of Simulation[],Month[]  ! When Monthly Report Variables Requested
5,1,Cumulative Days of Simulation[] ! When Run Period Report Variables Requested
6,1,Calendar Year of Simulation[] ! When Annual Report Variables Requested
8,1,Electricity:Facility [J] !TimeStep
End of Data Dictionary
1,RUN PERIOD 1,  45.47, -73.74,  -5.00,  36.00
2,1, 1, 1, 0, 1, 0.00,10.00,Sunday
8,73705884.18040632
2,1, 1, 1, 0, 1,10.00,20.00,Sunday
8,72176536.65079457
2,1, 1, 1, 0, 1,20.00,30.00,Sunday
8,69710814.44038422
2,1, 1, 1, 0, 1,30.00,40.00,Sunday
8,67593312.19168958
2,1, 1, 1, 0, 1,40.00,50.00,Sunday
8,64727065.52171642
2,1, 1, 1, 0, 1,50.00,60.00,Sunday
8,61925200.41267293
2,1, 1, 1, 0, 2, 0.00,10.00,Sunday
8,62834304.03844264
2,1, 1, 1, 0, 2,10.00,20.00,Sunday
8,63115841.28599778
2,1, 1, 1, 0, 2,20.00,30.00,Sunday
8,62826564.493470974
2,1, 1, 1, 0, 2,30.00,40.00,Sunday
8,62320315.25498723
2,1, 1, 1, 0, 2,40.00,50.00,Sunday
8,61983186.51370839
2,1, 1, 1, 0, 2,50.00,60.00,Sunday
8,61830402.60388969
2,1, 1, 1, 0, 3, 0.00,10.00,Sunday
8,63172774.228508346
2,1, 1, 1, 0, 3,10.00,20.00,Sunday
8,63628810.80376116
2,1, 1, 1, 0, 3,20.00,30.00,Sunday
8,64303226.6085344
2,1, 1, 1, 0, 3,30.00,40.00,Sunday
8,65169742.42215464
2,1, 1, 1, 0, 3,40.00,50.00,Sunday
8,65962293.04304559
2,1, 1, 1, 0, 3,50.00,60.00,Sunday
8,66248544.600447066
2,1, 1, 1, 0, 4, 0.00,10.00,Sunday
8,64683889.28207081
2,1, 1, 1, 0, 4,10.00,20.00,Sunday
8,62892699.697938964
2,1, 1, 1, 0, 4,20.00,30.00,Sunday
8,61049041.94812421
2,1, 1, 1, 0, 4,30.00,40.00,Sunday
8,58565207.62025354
2,1, 1, 1, 0, 4,40.00,50.00,Sunday
8,56424203.33108702
2,1, 1, 1, 0, 4,50.00,60.00,Sunday
8,54392757.01720546
2,1, 1, 1, 0, 5, 0.00,10.00,Sunday
8,54161316.520413645
2,1, 1, 1, 0, 5,10.00,20.00,Sunday
8,53031541.28033457
2,1, 1, 1, 0, 5,20.00,30.00,Sunday
8,52267859.46416844
2,1, 1, 1, 0, 5,30.00,40.00,Sunday
8,51624111.36060965
2,1, 1, 1, 0, 5,40.00,50.00,Sunday
8,51131614.28224346
2,1, 1, 1, 0, 5,50.00,60.00,Sunday
8,49912870.86704159
2,1, 1, 1, 0, 6, 0.00,10.00,Sunday
8,50110282.833227865
2,1, 1, 1, 0, 6,10.00,20.00,Sunday
8,50311437.95321168
2,1, 1, 1, 0, 6,20.00,30.00,Sunday
8,50692302.8452171
2,1, 1, 1, 0, 6,30.00,40.00,Sunday
8,50317432.11832132
2,1, 1, 1, 0, 6,40.00,50.00,Sunday
8,50375952.61880732
2,1, 1, 1, 0, 6,50.00,60.00,Sunday
8,50543100.43412961
2,1, 1, 1, 0, 7, 0.00,10.00,Sunday
8,49688847.5365311
2,1, 1, 1, 0, 7,10.00,20.00,Sunday
8,47988802.830012046
2,1, 1, 1, 0, 7,20.00,30.00,Sunday
8,46730020.996229954
2,1, 1, 1, 0, 7,30.00,40.00,Sunday
8,45584774.73702051
2,1, 1, 1, 0, 7,40.00,50.00,Sunday
8,44691606.664716505
2,1, 1, 1, 0, 7,50.00,60.00,Sunday
8,43013806.23460115
2,1, 1, 1, 0, 8, 0.00,10.00,Sunday
8,43776087.5993569
2,1, 1, 1, 0, 8,10.00,20.00,Sunday
8,44648445.89407614
2,1, 1, 1, 0, 8,20.00,30.00,Sunday
8,45772133.11145239
2,1, 1, 1, 0, 8,30.00,40.00,Sunday
8,46080941.95164787
2,1, 1, 1, 0, 8,40.00,50.00,Sunday
8,46437146.08000439
2,1, 1, 1, 0, 8,50.00,60.00,Sunday
8,46883192.25823527
2,1, 1, 1, 0, 9, 0.00,10.00,Sunday
8,49695851.121912524
2,1, 1, 1, 0, 9,10.00,20.00,Sunday
8,51920428.49551286
2,1, 1, 1, 0, 9,20.00,30.00,Sunday
8,54606483.801943235
2,1, 1, 1, 0, 9,30.00,40.00,Sunday
8,57304470.09827764
2,1, 1, 1, 0, 9,40.00,50.00,Sunday
8,60228461.59241956
2,1, 1, 1, 0, 9,50.00,60.00,Sunday
8,62283182.29300824
2,1, 1, 1, 0,10, 0.00,10.00,Sunday
8,110365318.15450369
2,1, 1, 1, 0,10,10.00,20.00,Sunday
8,61775793.7439133
2,1, 1, 1, 0,10,20.00,30.00,Sunday
8,97348170.83376846
2,1, 1, 1, 0,10,30.00,40.00,Sunday
8,97951319.94637962
2,1, 1, 1, 0,10,40.00,50.00,Sunday
8,102965622.36822744
2,1, 1, 1, 0,10,50.00,60.00,Sunday
8,109155648.73248875
2,1, 1, 1, 0,11, 0.00,10.00,Sunday
8,121797785.20193987
2,1, 1, 1, 0,11,10.00,20.00,Sunday
8,140781962.2892779
2,1, 1, 1, 0,11,20.00,30.00,Sunday
8,100464903.46770763
2,1, 1, 1, 0,11,30.00,40.00,Sunday
8,118560958.97800437
2,1, 1, 1, 0,11,40.00,50.00,Sunday
8,113135229.55416815
2,1, 1, 1, 0,11,50.00,60.00,Sunday
8,111352648.35587628
2,1, 1, 1, 0,12, 0.00,10.00,Sunday
8,198456146.22355142
2,1, 1, 1, 0,12,10.00,20.00,Sunday
8,198720016.04000497
2,1, 1, 1, 0,12,20.00,30.00,Sunday
8,199731050.80585703
2,1, 1, 1, 0,12,30.00,40.00,Sunday
8,200250058.857387
2,1, 1, 1, 0,12,40.00,50.00,Sunday
8,202265176.101243
2,1, 1, 1, 0,12,50.00,60.00,Sunday
8,203760509.34288427
2,1, 1, 1, 0,13, 0.00,10.00,Sunday
8,196580744.1961797
2,1, 1, 1, 0,13,10.00,20.00,Sunday
8,192975385.95221364
2,1, 1, 1, 0,13,20.00,30.00,Sunday
8,189784639.15911043
2,1, 1, 1, 0,13,30.00,40.00,Sunday
8,186661568.80877608
2,1, 1, 1, 0,13,40.00,50.00,Sunday
8,183809030.2481252
2,1, 1, 1, 0,13,50.00,60.00,Sunday
8,180813723.57168293
2,1, 1, 1, 0,14, 0.00,10.00,Sunday
8,183632510.6938345
2,1, 1, 1, 0,14,10.00,20.00,Sunday
8,186209824.0551719
2,1, 1, 1, 0,14,20.00,30.00,Sunday
8,189502358.83890405
2,1, 1, 1, 0,14,30.00,40.00,Sunday
8,193543572.06059763
2,1, 1, 1, 0,14,40.00,50.00,Sunday
8,196313998.80518493
2,1, 1, 1, 0,14,50.00,60.00,Sunday
8,199838457.60683265
2,1, 1, 1, 0,15, 0.00,10.00,Sunday
8,200401589.73552895
2,1, 1, 1, 0,15,10.00,20.00,Sunday
8,199044582.53798333
2,1, 1, 1, 0,15,20.00,30.00,Sunday
8,198396322.1432613
2,1, 1, 1, 0,15,30.00,40.00,Sunday
8,198200494.56725028
2,1, 1, 1, 0,15,40.00,50.00,Sunday
8,196984036.4374505
2,1, 1, 1, 0,15,50.00,60.00,Sunday
8,196492217.04850128
2,1, 1, 1, 0,16, 0.00,10.00,Sunday
8,196780072.20298797
2,1, 1, 1, 0,16,10.00,20.00,Sunday
8,195681209.46147117
2,1, 1, 1, 0,16,20.00,30.00,Sunday
8,194524303.60468802
2,1, 1, 1, 0,16,30.00,40.00,Sunday
8,193498232.49661744
2,1, 1, 1, 0,16,40.00,50.00,Sunday
8,192525584.2435683
2,1, 1, 1, 0,16,50.00,60.00,Sunday
8,191742157.01018068
2,1, 1, 1, 0,17, 0.00,10.00,Sunday
8,194449622.31403342
2,1, 1, 1, 0,17,10.00,20.00,Sunday
8,196296328.70985812
2,1, 1, 1, 0,17,20.00,30.00,Sunday
8,197455571.71730155
2,1, 1, 1, 0,17,30.00,40.00,Sunday
8,198520698.0432628
2,1, 1, 1, 0,17,40.00,50.00,Sunday
8,199369258.16342035
2,1, 1, 1, 0,17,50.00,60.00,Sunday
8,200079259.00958976
2,1, 1, 1, 0,18, 0.00,10.00,Sunday
8,202056183.63466585
2,1, 1, 1, 0,18,10.00,20.00,Sunday
8,202784197.33014467
2,1, 1, 1, 0,18,20.00,30.00,Sunday
8,202798893.515052
2,1, 1, 1, 0,18,30.00,40.00,Sunday
8,203298612.4577997
2,1, 1, 1, 0,18,40.00,50.00,Sunday
8,203935590.31890598
2,1, 1, 1, 0,18,50.00,60.00,Sunday
8,204220100.97337812
2,1, 1, 1, 0,19, 0.00,10.00,Sunday
8,199375305.75462672
2,1, 1, 1, 0,19,10.00,20.00,Sunday
8,197551224.86073008
2,1, 1, 1, 0,19,20.00,30.00,Sunday
8,195826019.40467736
2,1, 1, 1, 0,19,30.00,40.00,Sunday
8,193067453.24264497
2,1, 1, 1, 0,19,40.00,50.00,Sunday
8,191333400.06599253
2,1, 1, 1, 0,19,50.00,60.00,Sunday
8,189124198.49401933
2,1, 1, 1, 0,20, 0.00,10.00,Sunday
8,23852948.118848972
2,1, 1, 1, 0,20,10.00,20.00,Sunday
8,33444342.4432583
2,1, 1, 1, 0,20,20.00,30.00,Sunday
8,48817983.425349645
2,1, 1, 1, 0,20,30.00,40.00,Sunday
8,61268892.82655894
2,1, 1, 1, 0,20,40.00,50.00,Sunday
8,61059568.33890356
2,1, 1, 1, 0,20,50.00,60.00,Sunday
8,59325692.80471652
2,1, 1, 1, 0,21, 0.00,10.00,Sunday
8,65900674.038382046
2,1, 1, 1, 0,21,10.00,20.00,Sunday
8,67573212.90592214
2,1, 1, 1, 0,21,20.00,30.00,Sunday
8,66933345.19862966
2,1, 1, 1, 0,21,30.00,40.00,Sunday
8,66742619.62024047
2,1, 1, 1, 0,21,40.00,50.00,Sunday
8,66389825.19495163
2,1, 1, 1, 0,21,50.00,60.00,Sunday
8,66485203.491815105
2,1, 1, 1, 0,22, 0.00,10.00,Sunday
8,67470920.28642245
2,1, 1, 1, 0,22,10.00,20.00,Sunday
8,66696689.563483186
2,1, 1, 1, 0,22,20.00,30.00,Sunday
8,65495009.08749023
2,1, 1, 1, 0,22,30.00,40.00,Sunday
8,64781673.336899504
2,1, 1, 1, 0,22,40.00,50.00,Sunday
8,62867502.113275304
2,1, 1, 1, 0,22,50.00,60.00,Sunday
8,61452392.15823401
2,1, 1, 1, 0,23, 0.00,10.00,Sunday
8,66227655.117892444
2,1, 1, 1, 0,23,10.00,20.00,Sunday
8,70566395.93971847
2,1, 1, 1, 0,23,20.00,30.00,Sunday
8,73612148.40221225
2,1, 1, 1, 0,23,30.00,40.00,Sunday
8,77187185.46483348
2,1, 1, 1, 0,23,40.00,50.00,Sunday
8,80730353.08722451
2,1, 1, 1, 0,23,50.00,60.00,Sunday
8,84811294.75052689
2,1, 1, 1, 0,24, 0.00,10.00,Sunday
8,84657154.93874373
2,1, 1, 1, 0,24,10.00,20.00,Sunday
8,84681401.4280606
2,1, 1, 1, 0,24,20.00,30.00,Sunday
8,84644770.47323091
2,1, 1, 1, 0,24,30.00,40.00,Sunday
8,85159031.97116105
2,1, 1, 1, 0,24,40.00,50.00,Sunday
8,84538497.45669183
2,1, 1, 1, 0,24,50.00,60.00,Sunday
8,84471351.8882877
2,2, 1, 2, 0, 1, 0.00,10.00,Monday
8,82928269.50394654
2,2, 1, 2, 0, 1,10.00,20.00,Monday
8,81812888.92524597
2,2, 1, 2, 0, 1,20.00,30.00,Monday
8,79553896.33558019
2,2, 1, 2, 0, 1,30.00,40.00,Monday
8,77855258.39683785
2,2, 1, 2, 0, 1,40.00,50.00,Monday
8,76155245.16494817
2,2, 1, 2, 0, 1,50.00,60.00,Monday
8,75017145.27940412
2,2, 1, 2, 0, 2, 0.00,10.00,Monday
8,72867290.59050241
2,2, 1, 2, 0, 2,10.00,20.00,Monday
8,71202739.90602672
2,2, 1, 2, 0, 2,20.00,30.00,Monday
8,69526399.55449422
2,2, 1, 2, 0, 2,30.00,40.00,Monday
8,68412425.26917276
2,2, 1, 2, 0, 2,40.00,50.00,Monday
8,66168222.20537316
2,2, 1, 2, 0, 2,50.00,60.00,Monday
8,64486000.798871815
2,2, 1, 2, 0, 3, 0.00,10.00,Monday
8,66345519.61716033
2,2, 1, 2, 0, 3,10.00,20.00,Monday
8,68710653.21485928
2,2, 1, 2, 0, 3,20.00,30.00,Monday
8,69942079.62609243
2,2, 1, 2, 0, 3,30.00,40.00,Monday
8,71740084.76835105
2,2, 1, 2, 0, 3,40.00,50.00,Monday
8,73542016.4033138
2,2, 1, 2, 0, 3,50.00,60.00,Monday
8,75912482.36467464
2,2, 1, 2, 0, 4, 0.00,10.00,Monday
8,77563098.04249184
2,2, 1, 2, 0, 4,10.00,20.00,Monday
8,79718865.76671885
2,2, 1, 2, 0, 4,20.00,30.00,Monday
8,81860404.19026636
2,2, 1, 2, 0, 4,30.00,40.00,Monday
8,84553058.0444585
2,2, 1, 2, 0, 4,40.00,50.00,Monday
8,86125301.18800497
2,2, 1, 2, 0, 4,50.00,60.00,Monday
8,88236916.43529193
2,2, 1, 2, 0, 5, 0.00,10.00,Monday
8,89060576.36591716
2,2, 1, 2, 0, 5,10.00,20.00,Monday
8,90393752.95224749
2,2, 1, 2, 0, 5,20.00,30.00,Monday
8,90938414.26579033
2,2, 1, 2, 0, 5,30.00,40.00,Monday
8,91706456.8897699
2,2, 1, 2, 0, 5,40.00,50.00,Monday
8,92591759.28539287
2,2, 1, 2, 0, 5,50.00,60.00,Monday
8,93836617.58583865
2,2, 1, 2, 0, 6, 0.00,10.00,Monday
8,91706173.42693834
2,2, 1, 2, 0, 6,10.00,20.00,Monday
8,89574641.31101075
2,2, 1, 2, 0, 6,20.00,30.00,Monday
8,87552374.24634041
2,2, 1, 2, 0, 6,30.00,40.00,Monday
8,85808108.23022805
2,2, 1, 2, 0, 6,40.00,50.00,Monday
8,83748856.39788093
2,2, 1, 2, 0, 6,50.00,60.00,Monday
8,81420664.20062403
2,2, 1, 2, 0, 7, 0.00,10.00,Monday
8,82888092.68291318
2,2, 1, 2, 0, 7,10.00,20.00,Monday
8,84500265.30088903
2,2, 1, 2, 0, 7,20.00,30.00,Monday
8,85938627.08160129
2,2, 1, 2, 0, 7,30.00,40.00,Monday
8,86961395.91916172
2,2, 1, 2, 0, 7,40.00,50.00,Monday
8,88297831.08109471
2,2, 1, 2, 0, 7,50.00,60.00,Monday
8,89827469.56169325
2,2, 1, 2, 0, 8, 0.00,10.00,Monday
8,149041547.48487216
2,2, 1, 2, 0, 8,10.00,20.00,Monday
8,115061658.40070997
2,2, 1, 2, 0, 8,20.00,30.00,Monday
8,112961328.33878924
2,2, 1, 2, 0, 8,30.00,40.00,Monday
8,107045333.0317905
2,2, 1, 2, 0, 8,40.00,50.00,Monday
8,102326756.27516128
2,2, 1, 2, 0, 8,50.00,60.00,Monday
8,98380979.93463607
2,2, 1, 2, 0, 9, 0.00,10.00,Monday
8,137549156.11277875
2,2, 1, 2, 0, 9,10.00,20.00,Monday
8,145608895.84020454
2,2, 1, 2, 0, 9,20.00,30.00,Monday
8,114157997.21685009
2,2, 1, 2, 0, 9,30.00,40.00,Monday
8,129743514.11267704
2,2, 1, 2, 0, 9,40.00,50.00,Monday
8,128984346.43639764
2,2, 1, 2, 0, 9,50.00,60.00,Monday
8,131358058.69398378
2,2, 1, 2, 0,10, 0.00,10.00,Monday
8,218725196.55362013
2,2, 1, 2, 0,10,10.00,20.00,Monday
8,211497743.32308516
2,2, 1, 2, 0,10,20.00,30.00,Monday
8,205754483.7439031
2,2, 1, 2, 0,10,30.00,40.00,Monday
8,200589089.23027062
2,2, 1, 2, 0,10,40.00,50.00,Monday
8,195556221.8745996
2,2, 1, 2, 0,10,50.00,60.00,Monday
8,190671308.8241147
2,2, 1, 2, 0,11, 0.00,10.00,Monday
8,189860163.69507864
2,2, 1, 2, 0,11,10.00,20.00,Monday
8,193443439.2423608
2,2, 1, 2, 0,11,20.00,30.00,Monday
8,197596373.11151576
2,2, 1, 2, 0,11,30.00,40.00,Monday
8,201956714.50472578
2,2, 1, 2, 0,11,40.00,50.00,Monday
8,206342147.69086945
2,2, 1, 2, 0,11,50.00,60.00,Monday
8,210823495.70187452
2,2, 1, 2, 0,12, 0.00,10.00,Monday
8,204163905.58880293
2,2, 1, 2, 0,12,10.00,20.00,Monday
8,199744508.2732998
2,2, 1, 2, 0,12,20.00,30.00,Monday
8,195586314.147776
2,2, 1, 2, 0,12,30.00,40.00,Monday
8,191559422.68157223
2,2, 1, 2, 0,12,40.00,50.00,Monday
8,187628861.61894226
2,2, 1, 2, 0,12,50.00,60.00,Monday
8,183793752.42818847
2,2, 1, 2, 0,13, 0.00,10.00,Monday
8,182489204.14858538
2,2, 1, 2, 0,13,10.00,20.00,Monday
8,181453501.91332713
2,2, 1, 2, 0,13,20.00,30.00,Monday
8,180641736.0867162
2,2, 1, 2, 0,13,30.00,40.00,Monday
8,179838578.61289576
2,2, 1, 2, 0,13,40.00,50.00,Monday
8,179055385.48160762
2,2, 1, 2, 0,13,50.00,60.00,Monday
8,178285935.36578107
2,2, 1, 2, 0,14, 0.00,10.00,Monday
8,179144702.92415953
2,2, 1, 2, 0,14,10.00,20.00,Monday
8,180143577.43822956
2,2, 1, 2, 0,14,20.00,30.00,Monday
8,181207870.74509478
2,2, 1, 2, 0,14,30.00,40.00,Monday
8,182190938.35742515
2,2, 1, 2, 0,14,40.00,50.00,Monday
8,183150787.5184109
2,2, 1, 2, 0,14,50.00,60.00,Monday
8,184101416.24741387
2,2, 1, 2, 0,15, 0.00,10.00,Monday
8,183781722.34586424
2,2, 1, 2, 0,15,10.00,20.00,Monday
8,183435907.08535445
2,2, 1, 2, 0,15,20.00,30.00,Monday
8,183107359.63052613
2,2, 1, 2, 0,15,30.00,40.00,Monday
8,182976264.60239694
2,2, 1, 2, 0,15,40.00,50.00,Monday
8,182922691.9126588
2,2, 1, 2, 0,15,50.00,60.00,Monday
8,182911650.42147583
2,2, 1, 2, 0,16, 0.00,10.00,Monday
8,182370512.41819283
2,2, 1, 2, 0,16,10.00,20.00,Monday
8,181160004.55307862
2,2, 1, 2, 0,16,20.00,30.00,Monday
8,179902251.4031654
2,2, 1, 2, 0,16,30.00,40.00,Monday
8,178805409.3795612
2,2, 1, 2, 0,16,40.00,50.00,Monday
8,177842874.10599506
2,2, 1, 2, 0,16,50.00,60.00,Monday
8,176947422.5333613
2,2, 1, 2, 0,17, 0.00,10.00,Monday
8,176258537.24272573
2,2, 1, 2, 0,17,10.00,20.00,Monday
8,174855804.1952337
2,2, 1, 2, 0,17,20.00,30.00,Monday
8,172812840.51584822
2,2, 1, 2, 0,17,30.00,40.00,Monday
8,170578747.0292213
2,2, 1, 2, 0,17,40.00,50.00,Monday
8,168242314.80005786
2,2, 1, 2, 0,17,50.00,60.00,Monday
8,165243150.83251184
2,2, 1, 2, 0,18, 0.00,10.00,Monday
8,164087669.80158576
2,2, 1, 2, 0,18,10.00,20.00,Monday
8,162032073.26911414
2,2, 1, 2, 0,18,20.00,30.00,Monday
8,159652166.90912482
2,2, 1, 2, 0,18,30.00,40.00,Monday
8,157193385.38233352
2,2, 1, 2, 0,18,40.00,50.00,Monday
8,154685055.72705108
2,2, 1, 2, 0,18,50.00,60.00,Monday
8,152142602.67409575
2,2, 1, 2, 0,19, 0.00,10.00,Monday
8,151523955.3950404
2,2, 1, 2, 0,19,10.00,20.00,Monday
8,150736708.50912744
2,2, 1, 2, 0,19,20.00,30.00,Monday
8,149474398.35010386
2,2, 1, 2, 0,19,30.00,40.00,Monday
8,148852797.09795976
2,2, 1, 2, 0,19,40.00,50.00,Monday
8,148157132.88781762
2,2, 1, 2, 0,19,50.00,60.00,Monday
8,147243335.030715
2,2, 1, 2, 0,20, 0.00,10.00,Monday
8,123563647.5831763
2,2, 1, 2, 0,20,10.00,20.00,Monday
8,123893448.54288113
2,2, 1, 2, 0,20,20.00,30.00,Monday
8,126564655.60262343
2,2, 1, 2, 0,20,30.00,40.00,Monday
8,127552291.84921683
2,2, 1, 2, 0,20,40.00,50.00,Monday
8,129656212.94079983
2,2, 1, 2, 0,20,50.00,60.00,Monday
8,129227994.4024406
2,2, 1, 2, 0,21, 0.00,10.00,Monday
8,128565571.92510025
2,2, 1, 2, 0,21,10.00,20.00,Monday
8,128929671.03135169
2,2, 1, 2, 0,21,20.00,30.00,Monday
8,128025923.08547795
2,2, 1, 2, 0,21,30.00,40.00,Monday
8,127192735.8257114
2,2, 1, 2, 0,21,40.00,50.00,Monday
8,126793604.58250876
2,2, 1, 2, 0,21,50.00,60.00,Monday
8,125367834.96925332
2,2, 1, 2, 0,22, 0.00,10.00,Monday
8,9462609.826817062
2,2, 1, 2, 0,22,10.00,20.00,Monday
8,12551273.221322658
2,2, 1, 2, 0,22,20.00,30.00,Monday
8,14847701.30929627
2,2, 1, 2, 0,22,30.00,40.00,Monday
8,16804884.907005854
2,2, 1, 2, 0,22,40.00,50.00,Monday
8,26833357.778106045
2,2, 1, 2, 0,22,50.00,60.00,Monday
8,40049611.22255472
2,2, 1, 2, 0,23, 0.00,10.00,Monday
8,37247682.010718726
2,2, 1, 2, 0,23,10.00,20.00,Monday
8,43434442.46783458
2,2, 1, 2, 0,23,20.00,30.00,Monday
8,47021013.0958541
2,2, 1, 2, 0,23,30.00,40.00,Monday
8,49133381.531807035
2,2, 1, 2, 0,23,40.00,50.00,Monday
8,51632348.28859826
2,2, 1, 2, 0,23,50.00,60.00,Monday
8,54006783.04015383
2,2, 1, 2, 0,24, 0.00,10.00,Monday
8,57364824.73915536
2,2, 1, 2, 0,24,10.00,20.00,Monday
8,57398131.08400956
2,2, 1, 2, 0,24,20.00,30.00,Monday
8,57571421.78976248
2,2, 1, 2, 0,24,30.00,40.00,Monday
8,57681612.64362824
2,2, 1, 2, 0,24,40.00,50.00,Monday
8,58277859.73658757
2,2, 1, 2, 0,24,50.00,60.00,Monday
8,57712135.524921775
2,3, 1, 3, 0, 1, 0.00,10.00,Tuesday
8,58149218.95806258
2,3, 1, 3, 0, 1,10.00,20.00,Tuesday
8,57704870.78516032
2,3, 1, 3, 0, 1,20.00,30.00,Tuesday
8,57669189.95952306
2,3, 1, 3, 0, 1,30.00,40.00,Tuesday
8,56496683.03181403
2,3, 1, 3, 0, 1,40.00,50.00,Tuesday
8,55854932.37844243
2,3, 1, 3, 0, 1,50.00,60.00,Tuesday
8,55194876.045531966
2,3, 1, 3, 0, 2, 0.00,10.00,Tuesday
8,58639890.44221271
2,3, 1, 3, 0, 2,10.00,20.00,Tuesday
8,60632058.03364139
2,3, 1, 3, 0, 2,20.00,30.00,Tuesday
8,63132031.58880176
2,3, 1, 3, 0, 2,30.00,40.00,Tuesday
8,65631303.02729418
2,3, 1, 3, 0, 2,40.00,50.00,Tuesday
8,68685489.19458723
2,3, 1, 3, 0, 2,50.00,60.00,Tuesday
8,70627036.62365
2,3, 1, 3, 0, 3, 0.00,10.00,Tuesday
8,70471922.70256495
2,3, 1, 3, 0, 3,10.00,20.00,Tuesday
8,70172825.70171185
2,3, 1, 3, 0, 3,20.00,30.00,Tuesday
8,70406538.41391943
2,3, 1, 3, 0, 3,30.00,40.00,Tuesday
8,69521333.5211442
2,3, 1, 3, 0, 3,40.00,50.00,Tuesday
8,69188613.31091224
2,3, 1, 3, 0, 3,50.00,60.00,Tuesday
8,68852944.36987677
2,3, 1, 3, 0, 4, 0.00,10.00,Tuesday
8,73086213.54481557
2,3, 1, 3, 0, 4,10.00,20.00,Tuesday
8,76133931.89099029
2,3, 1, 3, 0, 4,20.00,30.00,Tuesday
8,79724290.06637467
2,3, 1, 3, 0, 4,30.00,40.00,Tuesday
8,83310546.59067942
2,3, 1, 3, 0, 4,40.00,50.00,Tuesday
8,87448142.0294805
2,3, 1, 3, 0, 4,50.00,60.00,Tuesday
8,90466363.82073577
2,3, 1, 3, 0, 5, 0.00,10.00,Tuesday
8,89912226.76171957
2,3, 1, 3, 0, 5,10.00,20.00,Tuesday
8,89333947.9335648
2,3, 1, 3, 0, 5,20.00,30.00,Tuesday
8,89309533.82269107
2,3, 1, 3, 0, 5,30.00,40.00,Tuesday
8,88168265.11931677
2,3, 1, 3, 0, 5,40.00,50.00,Tuesday
8,87583885.87619244
2,3, 1, 3, 0, 5,50.00,60.00,Tuesday
8,86999108.2028311
2,3, 1, 3, 0, 6, 0.00,10.00,Tuesday
8,88772978.66332048
2,3, 1, 3, 0, 6,10.00,20.00,Tuesday
8,89408907.97196545
2,3, 1, 3, 0, 6,20.00,30.00,Tuesday
8,90594035.9966607
2,3, 1, 3, 0, 6,30.00,40.00,Tuesday
8,91773957.40596472
2,3, 1, 3, 0, 6,40.00,50.00,Tuesday
8,93505484.60342835
2,3, 1, 3, 0, 6,50.00,60.00,Tuesday
8,94114857.821465
2,3, 1, 3, 0, 7, 0.00,10.00,Tuesday
8,89906917.48710294
2,3, 1, 3, 0, 7,10.00,20.00,Tuesday
8,85742656.00518066
2,3, 1, 3, 0, 7,20.00,30.00,Tuesday
8,82171753.30096363
2,3, 1, 3, 0, 7,30.00,40.00,Tuesday
8,77516367.08867142
2,3, 1, 3, 0, 7,40.00,50.00,Tuesday
8,73453329.0607643
2,3, 1, 3, 0, 7,50.00,60.00,Tuesday
8,69424342.27435341
2,3, 1, 3, 0, 8, 0.00,10.00,Tuesday
8,131148960.38569313
2,3, 1, 3, 0, 8,10.00,20.00,Tuesday
8,99681355.91048533
2,3, 1, 3, 0, 8,20.00,30.00,Tuesday
8,104421056.26949449
2,3, 1, 3, 0, 8,30.00,40.00,Tuesday
8,100786206.23866403
2,3, 1, 3, 0, 8,40.00,50.00,Tuesday
8,101262277.21332966
2,3, 1, 3, 0, 8,50.00,60.00,Tuesday
8,101895767.02186555
2,3, 1, 3, 0, 9, 0.00,10.00,Tuesday
8,136129335.02623597
2,3, 1, 3, 0, 9,10.00,20.00,Tuesday
8,138957031.07840663
2,3, 1, 3, 0, 9,20.00,30.00,Tuesday
8,102136259.71695644
2,3, 1, 3, 0, 9,30.00,40.00,Tuesday
8,112770640.55080716
2,3, 1, 3, 0, 9,40.00,50.00,Tuesday
8,106226974.43284427
2,3, 1, 3, 0, 9,50.00,60.00,Tuesday
8,103199068.3055127
2,3, 1, 3, 0,10, 0.00,10.00,Tuesday
8,172236053.8112493
2,3, 1, 3, 0,10,10.00,20.00,Tuesday
8,168566750.13361508
2,3, 1, 3, 0,10,20.00,30.00,Tuesday
8,166176301.88913777
2,3, 1, 3, 0,10,30.00,40.00,Tuesday
8,164034792.5791895
2,3, 1, 3, 0,10,40.00,50.00,Tuesday
8,161925727.11582607
2,3, 1, 3, 0,10,50.00,60.00,Tuesday
8,159963394.1946982
2,3, 1, 3, 0,11, 0.00,10.00,Tuesday
8,155694087.64315847
2,3, 1, 3, 0,11,10.00,20.00,Tuesday
8,154774124.26707107
2,3, 1, 3, 0,11,20.00,30.00,Tuesday
8,154322388.39684102
2,3, 1, 3, 0,11,30.00,40.00,Tuesday
8,153902504.91116422
2,3, 1, 3, 0,11,40.00,50.00,Tuesday
8,153666666.09954536
2,3, 1, 3, 0,11,50.00,60.00,Tuesday
8,153504864.1922031
2,3, 1, 3, 0,12, 0.00,10.00,Tuesday
8,150636125.8532241
2,3, 1, 3, 0,12,10.00,20.00,Tuesday
8,148994906.97519365
2,3, 1, 3, 0,12,20.00,30.00,Tuesday
8,147575745.3166845
2,3, 1, 3, 0,12,30.00,40.00,Tuesday
8,146227252.3809015
2,3, 1, 3, 0,12,40.00,50.00,Tuesday
8,144935870.43592545
2,3, 1, 3, 0,12,50.00,60.00,Tuesday
8,143839904.05011427
2,3, 1, 3, 0,13, 0.00,10.00,Tuesday
8,141931262.82383278
2,3, 1, 3, 0,13,10.00,20.00,Tuesday
8,140639923.18281314
2,3, 1, 3, 0,13,20.00,30.00,Tuesday
8,139472402.42681578
2,3, 1, 3, 0,13,30.00,40.00,Tuesday
8,138388311.46419913
2,3, 1, 3, 0,13,40.00,50.00,Tuesday
8,137342372.86801675
2,3, 1, 3, 0,13,50.00,60.00,Tuesday
8,136308427.95475975
2,3, 1, 3, 0,14, 0.00,10.00,Tuesday
8,135965921.27449635
2,3, 1, 3, 0,14,10.00,20.00,Tuesday
8,136043292.535676
2,3, 1, 3, 0,14,20.00,30.00,Tuesday
8,136221508.37001306
2,3, 1, 3, 0,14,30.00,40.00,Tuesday
8,136050200.74907517
2,3, 1, 3, 0,14,40.00,50.00,Tuesday
8,135772822.00009102
2,3, 1, 3, 0,14,50.00,60.00,Tuesday
8,135558448.03827646
2,3, 1, 3, 0,15, 0.00,10.00,Tuesday
8,133468164.23885934
2,3, 1, 3, 0,15,10.00,20.00,Tuesday
8,132164428.77372767
2,3, 1, 3, 0,15,20.00,30.00,Tuesday
8,130982158.55373682
2,3, 1, 3, 0,15,30.00,40.00,Tuesday
8,130068753.22282176
2,3, 1, 3, 0,15,40.00,50.00,Tuesday
8,129247418.72478557
2,3, 1, 3, 0,15,50.00,60.00,Tuesday
8,128418065.30991922
2,3, 1, 3, 0,16, 0.00,10.00,Tuesday
8,126149945.77631047
2,3, 1, 3, 0,16,10.00,20.00,Tuesday
8,124352041.81832306
2,3, 1, 3, 0,16,20.00,30.00,Tuesday
8,122634183.32195307
2,3, 1, 3, 0,16,30.00,40.00,Tuesday
8,121171256.5089435
2,3, 1, 3, 0,16,40.00,50.00,Tuesday
8,119904143.48679645
2,3, 1, 3, 0,16,50.00,60.00,Tuesday
8,118750624.88386449
2,3, 1, 3, 0,17, 0.00,10.00,Tuesday
8,117659448.55289568
2,3, 1, 3, 0,17,10.00,20.00,Tuesday
8,116786500.52304147
2,3, 1, 3, 0,17,20.00,30.00,Tuesday
8,115396584.71038076
2,3, 1, 3, 0,17,30.00,40.00,Tuesday
8,113864572.74665497
2,3, 1, 3, 0,17,40.00,50.00,Tuesday
8,112290065.51187755
2,3, 1, 3, 0,17,50.00,60.00,Tuesday
8,110106852.24656212
2,3, 1, 3, 0,18, 0.00,10.00,Tuesday
8,109863778.64952646
2,3, 1, 3, 0,18,10.00,20.00,Tuesday
8,109233305.68920209
2,3, 1, 3, 0,18,20.00,30.00,Tuesday
8,108352997.9411973
2,3, 1, 3, 0,18,30.00,40.00,Tuesday
8,107442906.86842982
2,3, 1, 3, 0,18,40.00,50.00,Tuesday
8,106504624.17927809
2,3, 1, 3, 0,18,50.00,60.00,Tuesday
8,105546828.19838385
2,3, 1, 3, 0,19, 0.00,10.00,Tuesday
8,104407150.09539919
2,3, 1, 3, 0,19,10.00,20.00,Tuesday
8,103139515.6772734
2,3, 1, 3, 0,19,20.00,30.00,Tuesday
8,101554318.46748494
2,3, 1, 3, 0,19,30.00,40.00,Tuesday
8,100614334.536783
2,3, 1, 3, 0,19,40.00,50.00,Tuesday
8,99445952.7608693
2,3, 1, 3, 0,19,50.00,60.00,Tuesday
8,98133446.20808245
2,3, 1, 3, 0,20, 0.00,10.00,Tuesday
8,82545673.39466186
2,3, 1, 3, 0,20,10.00,20.00,Tuesday
8,85152922.19298321
2,3, 1, 3, 0,20,20.00,30.00,Tuesday
8,87267634.31822324
2,3, 1, 3, 0,20,30.00,40.00,Tuesday
8,90532892.78041364
2,3, 1, 3, 0,20,40.00,50.00,Tuesday
8,95625867.35370989
2,3, 1, 3, 0,20,50.00,60.00,Tuesday
8,98651247.50726533
2,3, 1, 3, 0,21, 0.00,10.00,Tuesday
8,98437713.02520855
2,3, 1, 3, 0,21,10.00,20.00,Tuesday
8,100189391.8413228
2,3, 1, 3, 0,21,20.00,30.00,Tuesday
8,100311653.76148091
2,3, 1, 3, 0,21,30.00,40.00,Tuesday
8,100778872.61212322
2,3, 1, 3, 0,21,40.00,50.00,Tuesday
8,101377587.19546165
2,3, 1, 3, 0,21,50.00,60.00,Tuesday
8,101025158.00396366
2,3, 1, 3, 0,22, 0.00,10.00,Tuesday
8,9409603.029342188
2,3, 1, 3, 0,22,10.00,20.00,Tuesday
8,12511954.845869666
2,3, 1, 3, 0,22,20.00,30.00,Tuesday
8,14790473.39929746
2,3, 1, 3, 0,22,30.00,40.00,Tuesday
8,16797263.892905604
2,3, 1, 3, 0,22,40.00,50.00,Tuesday
8,30412997.56468474
2,3, 1, 3, 0,22,50.00,60.00,Tuesday
8,40421100.9522792
2,3, 1, 3, 0,23, 0.00,10.00,Tuesday
8,34410280.19817105
2,3, 1, 3, 0,23,10.00,20.00,Tuesday
8,37781769.368857585
2,3, 1, 3, 0,23,20.00,30.00,Tuesday
8,37908085.337639265
2,3, 1, 3, 0,23,30.00,40.00,Tuesday
8,36845529.54618723
2,3, 1, 3, 0,23,40.00,50.00,Tuesday
8,36207915.99489192
2,3, 1, 3, 0,23,50.00,60.00,Tuesday
8,35476556.045813054
2,3, 1, 3, 0,24, 0.00,10.00,Tuesday
8,39246923.50205316
2,3, 1, 3, 0,24,10.00,20.00,Tuesday
8,39849096.20105351
2,3, 1, 3, 0,24,20.00,30.00,Tuesday
8,40585642.19990555
2,3, 1, 3, 0,24,30.00,40.00,Tuesday
8,41261120.02722085
2,3, 1, 3, 0,24,40.00,50.00,Tuesday
8,42426524.61377774
2,3, 1, 3, 0,24,50.00,60.00,Tuesday
8,42428537.03165205
2,4, 1, 4, 0, 1, 0.00,10.00,Wednesday
8,43739949.9750759
2,4, 1, 4, 0, 1,10.00,20.00,Wednesday
8,44124602.91377392
2,4, 1, 4, 0, 1,20.00,30.00,Wednesday
8,44902985.78073128
2,4, 1, 4, 0, 1,30.00,40.00,Wednesday
8,44540331.46656663
2,4, 1, 4, 0, 1,40.00,50.00,Wednesday
8,44707199.68285792
2,4, 1, 4, 0, 1,50.00,60.00,Wednesday
8,44854576.113576345
2,4, 1, 4, 0, 2, 0.00,10.00,Wednesday
8,46919201.76373974
2,4, 1, 4, 0, 2,10.00,20.00,Wednesday
8,47472856.81565902
2,4, 1, 4, 0, 2,20.00,30.00,Wednesday
8,48517982.01478725
2,4, 1, 4, 0, 2,30.00,40.00,Wednesday
8,49552025.00667069
2,4, 1, 4, 0, 2,40.00,50.00,Wednesday
8,51132023.99286216
2,4, 1, 4, 0, 2,50.00,60.00,Wednesday
8,51587820.48897981
2,4, 1, 4, 0, 3, 0.00,10.00,Wednesday
8,53228377.23011917
2,4, 1, 4, 0, 3,10.00,20.00,Wednesday
8,54751100.621400476
2,4, 1, 4, 0, 3,20.00,30.00,Wednesday
8,56833633.430504836
2,4, 1, 4, 0, 3,30.00,40.00,Wednesday
8,57820496.63216003
2,4, 1, 4, 0, 3,40.00,50.00,Wednesday
8,59384960.282731846
2,4, 1, 4, 0, 3,50.00,60.00,Wednesday
8,60970163.15724578
2,4, 1, 4, 0, 4, 0.00,10.00,Wednesday
8,61059101.05050069
2,4, 1, 4, 0, 4,10.00,20.00,Wednesday
8,59909120.822552815
2,4, 1, 4, 0, 4,20.00,30.00,Wednesday
8,59293778.98813349
2,4, 1, 4, 0, 4,30.00,40.00,Wednesday
8,58670807.703055106
2,4, 1, 4, 0, 4,40.00,50.00,Wednesday
8,58597578.397759214
2,4, 1, 4, 0, 4,50.00,60.00,Wednesday
8,57398950.70143901
2,4, 1, 4, 0, 5, 0.00,10.00,Wednesday
8,57560503.56871573
2,4, 1, 4, 0, 5,10.00,20.00,Wednesday
8,57588846.69431391
2,4, 1, 4, 0, 5,20.00,30.00,Wednesday
8,58150661.04724149
2,4, 1, 4, 0, 5,30.00,40.00,Wednesday
8,57586053.34749562
2,4, 1, 4, 0, 5,40.00,50.00,Wednesday
8,57570777.02518648
2,4, 1, 4, 0, 5,50.00,60.00,Wednesday
8,57548289.04152583
2,4, 1, 4, 0, 6, 0.00,10.00,Wednesday
8,57882247.01769757
2,4, 1, 4, 0, 6,10.00,20.00,Wednesday
8,56930526.06934126
2,4, 1, 4, 0, 6,20.00,30.00,Wednesday
8,56503707.890208565
2,4, 1, 4, 0, 6,30.00,40.00,Wednesday
8,56067192.81358253
2,4, 1, 4, 0, 6,40.00,50.00,Wednesday
8,56181554.10542455
2,4, 1, 4, 0, 6,50.00,60.00,Wednesday
8,55170414.216839515
2,4, 1, 4, 0, 7, 0.00,10.00,Wednesday
8,54395614.649321444
2,4, 1, 4, 0, 7,10.00,20.00,Wednesday
8,53615670.45524685
2,4, 1, 4, 0, 7,20.00,30.00,Wednesday
8,53396825.80764481
2,4, 1, 4, 0, 7,30.00,40.00,Wednesday
8,52060238.09961407
2,4, 1, 4, 0, 7,40.00,50.00,Wednesday
8,51286715.96562199
2,4, 1, 4, 0, 7,50.00,60.00,Wednesday
8,50517337.93327461
2,4, 1, 4, 0, 8, 0.00,10.00,Wednesday
8,108069597.22630693
2,4, 1, 4, 0, 8,10.00,20.00,Wednesday
8,45032002.66120871
2,4, 1, 4, 0, 8,20.00,30.00,Wednesday
8,79095441.25302574
2,4, 1, 4, 0, 8,30.00,40.00,Wednesday
8,73314229.09882145
2,4, 1, 4, 0, 8,40.00,50.00,Wednesday
8,71911743.19267343
2,4, 1, 4, 0, 8,50.00,60.00,Wednesday
8,70644919.06191398
2,4, 1, 4, 0, 9, 0.00,10.00,Wednesday
8,119747667.0077045
2,4, 1, 4, 0, 9,10.00,20.00,Wednesday
8,103608480.4219953
2,4, 1, 4, 0, 9,20.00,30.00,Wednesday
8,88802622.29287268
2,4, 1, 4, 0, 9,30.00,40.00,Wednesday
8,87851693.18262511
2,4, 1, 4, 0, 9,40.00,50.00,Wednesday
8,87104110.05038695
2,4, 1, 4, 0, 9,50.00,60.00,Wednesday
8,86799366.39873663
2,4, 1, 4, 0,10, 0.00,10.00,Wednesday
8,144763190.39109817
2,4, 1, 4, 0,10,10.00,20.00,Wednesday
8,142766858.89030817
2,4, 1, 4, 0,10,20.00,30.00,Wednesday
8,142074407.70044208
2,4, 1, 4, 0,10,30.00,40.00,Wednesday
8,141762643.6591405
2,4, 1, 4, 0,10,40.00,50.00,Wednesday
8,141575977.44980866
2,4, 1, 4, 0,10,50.00,60.00,Wednesday
8,141575879.07202372
2,4, 1, 4, 0,11, 0.00,10.00,Wednesday
8,136421094.0815795
2,4, 1, 4, 0,11,10.00,20.00,Wednesday
8,135639227.85897332
2,4, 1, 4, 0,11,20.00,30.00,Wednesday
8,135221217.0157601
2,4, 1, 4, 0,11,30.00,40.00,Wednesday
8,134821085.62550327
2,4, 1, 4, 0,11,40.00,50.00,Wednesday
8,134625049.67449784
2,4, 1, 4, 0,11,50.00,60.00,Wednesday
8,134488033.03488687
2,4, 1, 4, 0,12, 0.00,10.00,Wednesday
8,131097159.0909603
2,4, 1, 4, 0,12,10.00,20.00,Wednesday
8,130248004.75302367
2,4, 1, 4, 0,12,20.00,30.00,Wednesday
8,129668282.33960788
2,4, 1, 4, 0,12,30.00,40.00,Wednesday
8,129334233.66750331
2,4, 1, 4, 0,12,40.00,50.00,Wednesday
8,129154200.60486116
2,4, 1, 4, 0,12,50.00,60.00,Wednesday
8,129171336.23158509
2,4, 1, 4, 0,13, 0.00,10.00,Wednesday
8,127386274.90742208
2,4, 1, 4, 0,13,10.00,20.00,Wednesday
8,126421733.77655445
2,4, 1, 4, 0,13,20.00,30.00,Wednesday
8,125437897.14122634
2,4, 1, 4, 0,13,30.00,40.00,Wednesday
8,124415557.37998913
2,4, 1, 4, 0,13,40.00,50.00,Wednesday
8,123401527.67374451
2,4, 1, 4, 0,13,50.00,60.00,Wednesday
8,122398497.91226317
2,4, 1, 4, 0,14, 0.00,10.00,Wednesday
8,123424814.01632965
2,4, 1, 4, 0,14,10.00,20.00,Wednesday
8,124235555.03440414
2,4, 1, 4, 0,14,20.00,30.00,Wednesday
8,125093703.69309683
2,4, 1, 4, 0,14,30.00,40.00,Wednesday
8,125974658.09738298
2,4, 1, 4, 0,14,40.00,50.00,Wednesday
8,126866725.13818178
2,4, 1, 4, 0,14,50.00,60.00,Wednesday
8,127766332.62046847
2,4, 1, 4, 0,15, 0.00,10.00,Wednesday
8,126972305.28141002
2,4, 1, 4, 0,15,10.00,20.00,Wednesday
8,125735642.71477084
2,4, 1, 4, 0,15,20.00,30.00,Wednesday
8,124465011.74822614
2,4, 1, 4, 0,15,30.00,40.00,Wednesday
8,123192784.91583069