Program Version,EnergyPlus, Version 23.2.0-7636e6b3e9, YMD=2025.01.19 15:45
1,5,Environment Title[],Latitude[deg],Longitude[deg],Time Zone[],Elevation[m]
2,8,Day of Simulation[],Month[],Day of Month[],DST Indicator[1=yes 0=no],Hour[],StartMinute[],EndMinute[],DayType
3,5,Cumulative Day of Simulation[],Month[],Day of Month[],DST Indicator[1=yes 0=no],DayType  ! When Daily Report Variables Requested
4,2,Cumulative Days of Simulation[],Month[]  ! When Monthly Report Variables Requested
5,1,Cumulative Days of Simulation[] ! When Run Period Report Variables Requested
6,1,Calendar Year of Simulation[] ! When Annual Report Variables Requested
8,1,Electricity:Facility [J] !TimeStep
End of Data Dictionary
1,RUN PERIOD 1,  45.84, -75.65,  -5.00, 194.60
2,1, 1, 1, 0, 1, 0.00,10.00,Sunday
8,28496006.05353158
2,1, 1, 1, 0, 1,10.00,20.00,Sunday
8,27801715.561188575
2,1, 1, 1, 0, 1,20.00,30.00,Sunday
8,26321614.69215517
2,1, 1, 1, 0, 1,30.00,40.00,Sunday
8,24752190.279334813
2,1, 1, 1, 0, 1,40.00,50.00,Sunday
8,21974871.72840934
2,1, 1, 1, 0, 1,50.00,60.00,Sunday
8,18778661.284989655
2,1, 1, 1, 0, 2, 0.00,10.00,Sunday
8,20474488.903017897
2,1, 1, 1, 0, 2,10.00,20.00,Sunday
8,21448381.05892205
2,1, 1, 1, 0, 2,20.00,30.00,Sunday
8,21795098.634786967
2,1, 1, 1, 0, 2,30.00,40.00,Sunday
8,21939386.525384635
2,1, 1, 1, 0, 2,40.00,50.00,Sunday
8,22274308.642552983
2,1, 1, 1, 0, 2,50.00,60.00,Sunday
8,22830764.76319509
2,1, 1, 1, 0, 3, 0.00,10.00,Sunday
8,23550939.04062968
2,1, 1, 1, 0, 3,10.00,20.00,Sunday
8,23582587.258444842
2,1, 1, 1, 0, 3,20.00,30.00,Sunday
8,23863089.250886165
2,1, 1, 1, 0, 3,30.00,40.00,Sunday
8,24343941.33665607
2,1, 1, 1, 0, 3,40.00,50.00,Sunday
8,24749584.344875153
2,1, 1, 1, 0, 3,50.00,60.00,Sunday
8,24653742.769429877
2,1, 1, 1, 0, 4, 0.00,10.00,Sunday
8,25140576.23359009
2,1, 1, 1, 0, 4,10.00,20.00,Sunday
8,25556645.862666253
2,1, 1, 1, 0, 4,20.00,30.00,Sunday
8,25961257.82446187
2,1, 1, 1, 0, 4,30.00,40.00,Sunday
8,25760161.84999809
2,1, 1, 1, 0, 4,40.00,50.00,Sunday
8,25932083.001465574
2,1, 1, 1, 0, 4,50.00,60.00,Sunday
8,26245391.122544356
2,1, 1, 1, 0, 5, 0.00,10.00,Sunday
8,26961540.883619986
2,1, 1, 1, 0, 5,10.00,20.00,Sunday
8,26936181.545958165
2,1, 1, 1, 0, 5,20.00,30.00,Sunday
8,27300603.49685383
2,1, 1, 1, 0, 5,30.00,40.00,Sunday
8,27791089.102487944
2,1, 1, 1, 0, 5,40.00,50.00,Sunday
8,28437277.920490883
2,1, 1, 1, 0, 5,50.00,60.00,Sunday
8,28362957.038225595
2,1, 1, 1, 0, 6, 0.00,10.00,Sunday
8,28284113.87910199
2,1, 1, 1, 0, 6,10.00,20.00,Sunday
8,28404745.046119526
2,1, 1, 1, 0, 6,20.00,30.00,Sunday
8,28742529.876101423
2,1, 1, 1, 0, 6,30.00,40.00,Sunday
8,28335798.374285437
2,1, 1, 1, 0, 6,40.00,50.00,Sunday
8,28369748.78124706
2,1, 1, 1, 0, 6,50.00,60.00,Sunday
8,28517670.586908016
2,1, 1, 1, 0, 7, 0.00,10.00,Sunday
8,29072875.097907875
2,1, 1, 1, 0, 7,10.00,20.00,Sunday
8,28792623.191762045
2,1, 1, 1, 0, 7,20.00,30.00,Sunday
8,28942170.411532044
2,1, 1, 1, 0, 7,30.00,40.00,Sunday
8,29191550.313052066
2,1, 1, 1, 0, 7,40.00,50.00,Sunday
8,29678940.947182637
2,1, 1, 1, 0, 7,50.00,60.00,Sunday
8,29368714.033383936
2,1, 1, 1, 0, 8, 0.00,10.00,Sunday
8,29247012.890516035
2,1, 1, 1, 0, 8,10.00,20.00,Sunday
8,29275959.06568839
2,1, 1, 1, 0, 8,20.00,30.00,Sunday
8,29574066.56806027
2,1, 1, 1, 0, 8,30.00,40.00,Sunday
8,29068792.698600244
2,1, 1, 1, 0, 8,40.00,50.00,Sunday
8,29021891.53604041
2,1, 1, 1, 0, 8,50.00,60.00,Sunday
8,28393606.220214956
2,1, 1, 1, 0, 9, 0.00,10.00,Sunday
8,27972183.546851706
2,1, 1, 1, 0, 9,10.00,20.00,Sunday
8,26886272.20002659
2,1, 1, 1, 0, 9,20.00,30.00,Sunday
8,26210356.97296858
2,1, 1, 1, 0, 9,30.00,40.00,Sunday
8,25886734.03731507
2,1, 1, 1, 0, 9,40.00,50.00,Sunday
8,25912386.455084305
2,1, 1, 1, 0, 9,50.00,60.00,Sunday
8,25172413.028712273
2,1, 1, 1, 0,10, 0.00,10.00,Sunday
8,67212947.09783311
2,1, 1, 1, 0,10,10.00,20.00,Sunday
8,36095244.40295649
2,1, 1, 1, 0,10,20.00,30.00,Sunday
8,41639766.86967807
2,1, 1, 1, 0,10,30.00,40.00,Sunday
8,34508561.27486304
2,1, 1, 1, 0,10,40.00,50.00,Sunday
8,33583216.71800299
2,1, 1, 1, 0,10,50.00,60.00,Sunday
8,33671751.81843972
2,1, 1, 1, 0,11, 0.00,10.00,Sunday
8,73311995.91442211
2,1, 1, 1, 0,11,10.00,20.00,Sunday
8,58565415.87095173
2,1, 1, 1, 0,11,20.00,30.00,Sunday
8,48372680.9372977
2,1, 1, 1, 0,11,30.00,40.00,Sunday
8,47274632.728562236
2,1, 1, 1, 0,11,40.00,50.00,Sunday
8,46459284.82191602
2,1, 1, 1, 0,11,50.00,60.00,Sunday
8,46472645.40157601
2,1, 1, 1, 0,12, 0.00,10.00,Sunday
8,99881570.90797235
2,1, 1, 1, 0,12,10.00,20.00,Sunday
8,99346870.60515688
2,1, 1, 1, 0,12,20.00,30.00,Sunday
8,99381648.06925441
2,1, 1, 1, 0,12,30.00,40.00,Sunday
8,98854692.84871386
2,1, 1, 1, 0,12,40.00,50.00,Sunday
8,99799472.19646066
2,1, 1, 1, 0,12,50.00,60.00,Sunday
8,100152880.7650532
2,1, 1, 1, 0,13, 0.00,10.00,Sunday
8,97897718.94392408
2,1, 1, 1, 0,13,10.00,20.00,Sunday
8,97807266.24341941
2,1, 1, 1, 0,13,20.00,30.00,Sunday
8,97979301.68823925
2,1, 1, 1, 0,13,30.00,40.00,Sunday
8,98129865.19604138
2,1, 1, 1, 0,13,40.00,50.00,Sunday
8,98484837.62958924
2,1, 1, 1, 0,13,50.00,60.00,Sunday
8,98585395.18722649
2,1, 1, 1, 0,14, 0.00,10.00,Sunday
8,97589641.98034625
2,1, 1, 1, 0,14,10.00,20.00,Sunday
8,96527106.80139354
2,1, 1, 1, 0,14,20.00,30.00,Sunday
8,96122737.57642925
2,1, 1, 1, 0,14,30.00,40.00,Sunday
8,96502693.08736855
2,1, 1, 1, 0,14,40.00,50.00,Sunday
8,95587925.2799409
2,1, 1, 1, 0,14,50.00,60.00,Sunday
8,95386396.11575979
2,1, 1, 1, 0,15, 0.00,10.00,Sunday
8,95510063.59731916
2,1, 1, 1, 0,15,10.00,20.00,Sunday
8,94843010.0329596
2,1, 1, 1, 0,15,20.00,30.00,Sunday
8,94951390.99719685
2,1, 1, 1, 0,15,30.00,40.00,Sunday
8,95548253.22896174
2,1, 1, 1, 0,15,40.00,50.00,Sunday
8,95164153.48463771
2,1, 1, 1, 0,15,50.00,60.00,Sunday
8,95534853.00543064
2,1, 1, 1, 0,16, 0.00,10.00,Sunday
8,95796499.68807195
2,1, 1, 1, 0,16,10.00,20.00,Sunday
8,96061499.61359172
2,1, 1, 1, 0,16,20.00,30.00,Sunday
8,96310673.89574261
2,1, 1, 1, 0,16,30.00,40.00,Sunday
8,96403192.06289607
2,1, 1, 1, 0,16,40.00,50.00,Sunday
8,96370249.57497364
2,1, 1, 1, 0,16,50.00,60.00,Sunday
8,96434799.88055155
2,1, 1, 1, 0,17, 0.00,10.00,Sunday
8,96815269.7724122
2,1, 1, 1, 0,17,10.00,20.00,Sunday
8,97150409.22140312
2,1, 1, 1, 0,17,20.00,30.00,Sunday
8,97433610.1732339
2,1, 1, 1, 0,17,30.00,40.00,Sunday
8,97836427.63068345
2,1, 1, 1, 0,17,40.00,50.00,Sunday
8,98083113.8376252
2,1, 1, 1, 0,17,50.00,60.00,Sunday
8,98275961.72296731
2,1, 1, 1, 0,18, 0.00,10.00,Sunday
8,98408641.20855443
2,1, 1, 1, 0,18,10.00,20.00,Sunday
8,98486898.08143005
2,1, 1, 1, 0,18,20.00,30.00,Sunday
8,98079172.1763007
2,1, 1, 1, 0,18,30.00,40.00,Sunday
8,98218488.99335612
2,1, 1, 1, 0,18,40.00,50.00,Sunday
8,98539988.91439496
2,1, 1, 1, 0,18,50.00,60.00,Sunday
8,98547677.34388037
2,1, 1, 1, 0,19, 0.00,10.00,Sunday
8,94778743.42495154
2,1, 1, 1, 0,19,10.00,20.00,Sunday
8,94838483.44472514
2,1, 1, 1, 0,19,20.00,30.00,Sunday
8,95105884.45844053
2,1, 1, 1, 0,19,30.00,40.00,Sunday
8,94360578.34780012
2,1, 1, 1, 0,19,40.00,50.00,Sunday
8,94674083.28110203
2,1, 1, 1, 0,19,50.00,60.00,Sunday
8,94523320.14177369
2,1, 1, 1, 0,20, 0.00,10.00,Sunday
8,8297706.923298499
2,1, 1, 1, 0,20,10.00,20.00,Sunday
8,10703572.230521446
2,1, 1, 1, 0,20,20.00,30.00,Sunday
8,11703468.549642155
2,1, 1, 1, 0,20,30.00,40.00,Sunday
8,12454356.286131943
2,1, 1, 1, 0,20,40.00,50.00,Sunday
8,12791656.185113033
2,1, 1, 1, 0,20,50.00,60.00,Sunday
8,14670486.77564826
2,1, 1, 1, 0,21, 0.00,10.00,Sunday
8,24426606.066314373
2,1, 1, 1, 0,21,10.00,20.00,Sunday
8,27624290.686941963
2,1, 1, 1, 0,21,20.00,30.00,Sunday
8,25628330.225871943
2,1, 1, 1, 0,21,30.00,40.00,Sunday
8,26303195.01609084
2,1, 1, 1, 0,21,40.00,50.00,Sunday
8,26274402.14779942
2,1, 1, 1, 0,21,50.00,60.00,Sunday
8,26760812.852117978
2,1, 1, 1, 0,22, 0.00,10.00,Sunday
8,28147602.40705737
2,1, 1, 1, 0,22,10.00,20.00,Sunday
8,28441020.548282407
2,1, 1, 1, 0,22,20.00,30.00,Sunday
8,28281864.183585107
2,1, 1, 1, 0,22,30.00,40.00,Sunday
8,28646253.081089582
2,1, 1, 1, 0,22,40.00,50.00,Sunday
8,27832178.301257126
2,1, 1, 1, 0,22,50.00,60.00,Sunday
8,27537088.34491826
2,1, 1, 1, 0,23, 0.00,10.00,Sunday
8,28935779.171477925
2,1, 1, 1, 0,23,10.00,20.00,Sunday
8,29958102.621852376
2,1, 1, 1, 0,23,20.00,30.00,Sunday
8,29661440.2178501
2,1, 1, 1, 0,23,30.00,40.00,Sunday
8,29897988.61477221
2,1, 1, 1, 0,23,40.00,50.00,Sunday
8,30102455.59163056
2,1, 1, 1, 0,23,50.00,60.00,Sunday
8,30844334.845997676
2,1, 1, 1, 0,24, 0.00,10.00,Sunday
8,31075812.791962888
2,1, 1, 1, 0,24,10.00,20.00,Sunday
8,31367513.607091524
2,1, 1, 1, 0,24,20.00,30.00,Sunday
8,31563674.615789942
2,1, 1, 1, 0,24,30.00,40.00,Sunday
8,32305196.533961687
2,1, 1, 1, 0,24,40.00,50.00,Sunday
8,31904303.15802984
2,1, 1, 1, 0,24,50.00,60.00,Sunday
8,32053254.633849792
2,2, 1, 2, 0, 1, 0.00,10.00,Monday
8,32867579.863313943
2,2, 1, 2, 0, 1,10.00,20.00,Monday
8,34044180.516822174
2,2, 1, 2, 0, 1,20.00,30.00,Monday
8,34064152.20304125
2,2, 1, 2, 0, 1,30.00,40.00,Monday
8,34647618.0395894
2,2, 1, 2, 0, 1,40.00,50.00,Monday
8,35230953.17129513
2,2, 1, 2, 0, 1,50.00,60.00,Monday
8,36378891.633826405
2,2, 1, 2, 0, 2, 0.00,10.00,Monday
8,36348297.38919534
2,2, 1, 2, 0, 2,10.00,20.00,Monday
8,36745932.157650106
2,2, 1, 2, 0, 2,20.00,30.00,Monday
8,37123504.478485174
2,2, 1, 2, 0, 2,30.00,40.00,Monday
8,38064893.98317067
2,2, 1, 2, 0, 2,40.00,50.00,Monday
8,37875680.666117944
2,2, 1, 2, 0, 2,50.00,60.00,Monday
8,38250210.276468985
2,2, 1, 2, 0, 3, 0.00,10.00,Monday
8,38682186.49621518
2,2, 1, 2, 0, 3,10.00,20.00,Monday
8,39560156.7663176
2,2, 1, 2, 0, 3,20.00,30.00,Monday
8,39287859.43540914
2,2, 1, 2, 0, 3,30.00,40.00,Monday
8,39578110.68873004
2,2, 1, 2, 0, 3,40.00,50.00,Monday
8,39866967.73525739
2,2, 1, 2, 0, 3,50.00,60.00,Monday
8,40611321.64262388
2,2, 1, 2, 0, 4, 0.00,10.00,Monday
8,40617478.04364849
2,2, 1, 2, 0, 4,10.00,20.00,Monday
8,40768241.732956916
2,2, 1, 2, 0, 4,20.00,30.00,Monday
8,41008081.92706781
2,2, 1, 2, 0, 4,30.00,40.00,Monday
8,41609349.01061749
2,2, 1, 2, 0, 4,40.00,50.00,Monday
8,41677987.48914268
2,2, 1, 2, 0, 4,50.00,60.00,Monday
8,41714396.015552394
2,2, 1, 2, 0, 5, 0.00,10.00,Monday
8,42016735.471932404
2,2, 1, 2, 0, 5,10.00,20.00,Monday
8,42572388.38600658
2,2, 1, 2, 0, 5,20.00,30.00,Monday
8,42803514.97028936
2,2, 1, 2, 0, 5,30.00,40.00,Monday
8,42789978.531852655
2,2, 1, 2, 0, 5,40.00,50.00,Monday
8,43040943.15374872
2,2, 1, 2, 0, 5,50.00,60.00,Monday
8,43529305.70393645
2,2, 1, 2, 0, 6, 0.00,10.00,Monday
8,43535568.07211029
2,2, 1, 2, 0, 6,10.00,20.00,Monday
8,43112626.12216459
2,2, 1, 2, 0, 6,20.00,30.00,Monday
8,43003944.6514976
2,2, 1, 2, 0, 6,30.00,40.00,Monday
8,43098724.460614465
2,2, 1, 2, 0, 6,40.00,50.00,Monday
8,43140233.849628314
2,2, 1, 2, 0, 6,50.00,60.00,Monday
8,42676879.755207814
2,2, 1, 2, 0, 7, 0.00,10.00,Monday
8,42470165.334330596
2,2, 1, 2, 0, 7,10.00,20.00,Monday
8,42356510.30134726
2,2, 1, 2, 0, 7,20.00,30.00,Monday
8,42248906.80942843
2,2, 1, 2, 0, 7,30.00,40.00,Monday
8,41554451.658988975
2,2, 1, 2, 0, 7,40.00,50.00,Monday
8,41234828.601211146
2,2, 1, 2, 0, 7,50.00,60.00,Monday
8,41070654.844835274
2,2, 1, 2, 0, 8, 0.00,10.00,Monday
8,94746214.256798
2,2, 1, 2, 0, 8,10.00,20.00,Monday
8,62304075.816446744
2,2, 1, 2, 0, 8,20.00,30.00,Monday
8,66520456.94219298
2,2, 1, 2, 0, 8,30.00,40.00,Monday
8,60341123.82940112
2,2, 1, 2, 0, 8,40.00,50.00,Monday
8,59149175.63059697
2,2, 1, 2, 0, 8,50.00,60.00,Monday
8,57406791.58105381
2,2, 1, 2, 0, 9, 0.00,10.00,Monday
8,105149741.9494794
2,2, 1, 2, 0, 9,10.00,20.00,Monday
8,88866730.2467444
2,2, 1, 2, 0, 9,20.00,30.00,Monday
8,73358201.26436716
2,2, 1, 2, 0, 9,30.00,40.00,Monday
8,71821100.96006927
2,2, 1, 2, 0, 9,40.00,50.00,Monday
8,70118830.4339421
2,2, 1, 2, 0, 9,50.00,60.00,Monday
8,68837527.72547214
2,2, 1, 2, 0,10, 0.00,10.00,Monday
8,116763606.9955632
2,2, 1, 2, 0,10,10.00,20.00,Monday
8,114368349.62675725
2,2, 1, 2, 0,10,20.00,30.00,Monday
8,113098149.63935013
2,2, 1, 2, 0,10,30.00,40.00,Monday
8,112644373.06259683
2,2, 1, 2, 0,10,40.00,50.00,Monday
8,112408569.1106255
2,2, 1, 2, 0,10,50.00,60.00,Monday
8,112402116.43936034
2,2, 1, 2, 0,11, 0.00,10.00,Monday
8,109463539.38848355
2,2, 1, 2, 0,11,10.00,20.00,Monday
8,109909025.0334286
2,2, 1, 2, 0,11,20.00,30.00,Monday
8,110767596.358418
2,2, 1, 2, 0,11,30.00,40.00,Monday
8,111414740.39583956
2,2, 1, 2, 0,11,40.00,50.00,Monday
8,111970558.52383965
2,2, 1, 2, 0,11,50.00,60.00,Monday
8,112527293.59709406
2,2, 1, 2, 0,12, 0.00,10.00,Monday
8,112443736.11631864
2,2, 1, 2, 0,12,10.00,20.00,Monday
8,112971176.11049756
2,2, 1, 2, 0,12,20.00,30.00,Monday
8,113567340.80066371
2,2, 1, 2, 0,12,30.00,40.00,Monday
8,114297305.0876171
2,2, 1, 2, 0,12,40.00,50.00,Monday
8,115073126.86766845
2,2, 1, 2, 0,12,50.00,60.00,Monday
8,115988331.10158674
2,2, 1, 2, 0,13, 0.00,10.00,Monday
8,116851997.72573268
2,2, 1, 2, 0,13,10.00,20.00,Monday
8,117554898.91094904
2,2, 1, 2, 0,13,20.00,30.00,Monday
8,118402478.76185255
2,2, 1, 2, 0,13,30.00,40.00,Monday
8,119215416.60508943
2,2, 1, 2, 0,13,40.00,50.00,Monday
8,120024767.3646348
2,2, 1, 2, 0,13,50.00,60.00,Monday
8,120835822.71848904
2,2, 1, 2, 0,14, 0.00,10.00,Monday
8,121369698.01500013
2,2, 1, 2, 0,14,10.00,20.00,Monday
8,121993415.7231607
2,2, 1, 2, 0,14,20.00,30.00,Monday
8,122646734.87489657
2,2, 1, 2, 0,14,30.00,40.00,Monday
8,123291451.87905923
2,2, 1, 2, 0,14,40.00,50.00,Monday
8,123861058.77055505
2,2, 1, 2, 0,14,50.00,60.00,Monday
8,124486202.08034393
2,2, 1, 2, 0,15, 0.00,10.00,Monday
8,124860672.33870246
2,2, 1, 2, 0,15,10.00,20.00,Monday
8,125353655.97914094
2,2, 1, 2, 0,15,20.00,30.00,Monday
8,125852211.8046819
2,2, 1, 2, 0,15,30.00,40.00,Monday
8,126496096.14777464
2,2, 1, 2, 0,15,40.00,50.00,Monday
8,127190431.09012298
2,2, 1, 2, 0,15,50.00,60.00,Monday
8,127913338.57151498
2,2, 1, 2, 0,16, 0.00,10.00,Monday
8,128825702.78797412
2,2, 1, 2, 0,16,10.00,20.00,Monday
8,129576053.02333868
2,2, 1, 2, 0,16,20.00,30.00,Monday
8,130371070.537522
2,2, 1, 2, 0,16,30.00,40.00,Monday
8,131054492.90701205
2,2, 1, 2, 0,16,40.00,50.00,Monday
8,131711090.61145414
2,2, 1, 2, 0,16,50.00,60.00,Monday
8,132354685.35543725
2,2, 1, 2, 0,17, 0.00,10.00,Monday
8,133105995.08953486
2,2, 1, 2, 0,17,10.00,20.00,Monday
8,133555123.83816843
2,2, 1, 2, 0,17,20.00,30.00,Monday
8,133882005.20857173
2,2, 1, 2, 0,17,30.00,40.00,Monday
8,134135543.83213125
2,2, 1, 2, 0,17,40.00,50.00,Monday
8,134342193.43696827
2,2, 1, 2, 0,17,50.00,60.00,Monday
8,133949725.78673935
2,2, 1, 2, 0,18, 0.00,10.00,Monday
8,134553693.73476923
2,2, 1, 2, 0,18,10.00,20.00,Monday
8,135037743.71174717
2,2, 1, 2, 0,18,20.00,30.00,Monday
8,135320532.94256586
2,2, 1, 2, 0,18,30.00,40.00,Monday
8,135567180.76905045
2,2, 1, 2, 0,18,40.00,50.00,Monday
8,135796379.33473995
2,2, 1, 2, 0,18,50.00,60.00,Monday
8,136014022.84444293
2,2, 1, 2, 0,19, 0.00,10.00,Monday
8,136853260.40622607
2,2, 1, 2, 0,19,10.00,20.00,Monday
8,137616038.94982025
2,2, 1, 2, 0,19,20.00,30.00,Monday
8,137906603.29826203
2,2, 1, 2, 0,19,30.00,40.00,Monday
8,138840575.2778717
2,2, 1, 2, 0,19,40.00,50.00,Monday
8,139702114.10295334
2,2, 1, 2, 0,19,50.00,60.00,Monday
8,140346948.32049757
2,2, 1, 2, 0,20, 0.00,10.00,Monday
8,117705178.12085544
2,2, 1, 2, 0,20,10.00,20.00,Monday
8,125218611.24333683
2,2, 1, 2, 0,20,20.00,30.00,Monday
8,132173141.74511196
2,2, 1, 2, 0,20,30.00,40.00,Monday
8,126527330.32756148
2,2, 1, 2, 0,20,40.00,50.00,Monday
8,129966600.55436775
2,2, 1, 2, 0,20,50.00,60.00,Monday
8,130994986.31726943
2,2, 1, 2, 0,21, 0.00,10.00,Monday
8,131586354.30694406
2,2, 1, 2, 0,21,10.00,20.00,Monday
8,133587982.28069682
2,2, 1, 2, 0,21,20.00,30.00,Monday
8,134290120.72654805
2,2, 1, 2, 0,21,30.00,40.00,Monday
8,135001167.3176669
2,2, 1, 2, 0,21,40.00,50.00,Monday
8,136221540.38642687
2,2, 1, 2, 0,21,50.00,60.00,Monday
8,136415473.22548446
2,2, 1, 2, 0,22, 0.00,10.00,Monday
8,14255331.144859133
2,2, 1, 2, 0,22,10.00,20.00,Monday
8,17992285.61226861
2,2, 1, 2, 0,22,20.00,30.00,Monday
8,24356310.386070147
2,2, 1, 2, 0,22,30.00,40.00,Monday
8,37111380.428635225
2,2, 1, 2, 0,22,40.00,50.00,Monday
8,45890320.49919112
2,2, 1, 2, 0,22,50.00,60.00,Monday
8,46655894.61945541
2,2, 1, 2, 0,23, 0.00,10.00,Monday
8,50446156.93273208
2,2, 1, 2, 0,23,10.00,20.00,Monday
8,52912527.45206351
2,2, 1, 2, 0,23,20.00,30.00,Monday
8,54084777.47044251
2,2, 1, 2, 0,23,30.00,40.00,Monday
8,54171027.37367483
2,2, 1, 2, 0,23,40.00,50.00,Monday
8,54687798.77719391
2,2, 1, 2, 0,23,50.00,60.00,Monday
8,55112704.3778382
2,2, 1, 2, 0,24, 0.00,10.00,Monday
8,58301576.922631264
2,2, 1, 2, 0,24,10.00,20.00,Monday
8,58393890.51723888
2,2, 1, 2, 0,24,20.00,30.00,Monday
8,58570237.84204068
2,2, 1, 2, 0,24,30.00,40.00,Monday
8,58685548.85203434
2,2, 1, 2, 0,24,40.00,50.00,Monday
8,59277449.081082106
2,2, 1, 2, 0,24,50.00,60.00,Monday
8,58706912.35559184
2,3, 1, 3, 0, 1, 0.00,10.00,Tuesday
8,59948628.882765256
2,3, 1, 3, 0, 1,10.00,20.00,Tuesday
8,60078917.40599566
2,3, 1, 3, 0, 1,20.00,30.00,Tuesday
8,60552638.07935071
2,3, 1, 3, 0, 1,30.00,40.00,Tuesday
8,59887330.48220534
2,3, 1, 3, 0, 1,40.00,50.00,Tuesday
8,59737870.44061053
2,3, 1, 3, 0, 1,50.00,60.00,Tuesday
8,59600836.02543578
2,3, 1, 3, 0, 2, 0.00,10.00,Tuesday
8,61045415.25630232
2,3, 1, 3, 0, 2,10.00,20.00,Tuesday
8,61034126.19874779
2,3, 1, 3, 0, 2,20.00,30.00,Tuesday
8,61461039.25350146
2,3, 1, 3, 0, 2,30.00,40.00,Tuesday
8,61948118.25639028
2,3, 1, 3, 0, 2,40.00,50.00,Tuesday
8,62771017.078547716
2,3, 1, 3, 0, 2,50.00,60.00,Tuesday
8,62683190.266591854
2,3, 1, 3, 0, 3, 0.00,10.00,Tuesday
8,63372476.96627795
2,3, 1, 3, 0, 3,10.00,20.00,Tuesday
8,63831505.24114069
2,3, 1, 3, 0, 3,20.00,30.00,Tuesday
8,64519040.911376886
2,3, 1, 3, 0, 3,30.00,40.00,Tuesday
8,64357142.23352085
2,3, 1, 3, 0, 3,40.00,50.00,Tuesday
8,64651060.31816584
2,3, 1, 3, 0, 3,50.00,60.00,Tuesday
8,65043134.93809725
2,3, 1, 3, 0, 4, 0.00,10.00,Tuesday
8,65965603.78350999
2,3, 1, 3, 0, 4,10.00,20.00,Tuesday
8,65912782.94433404
2,3, 1, 3, 0, 4,20.00,30.00,Tuesday
8,66279388.537525155
2,3, 1, 3, 0, 4,30.00,40.00,Tuesday
8,66755772.76181411
2,3, 1, 3, 0, 4,40.00,50.00,Tuesday
8,67436219.99587245
2,3, 1, 3, 0, 4,50.00,60.00,Tuesday
8,67348425.59951569
2,3, 1, 3, 0, 5, 0.00,10.00,Tuesday
8,67200607.76624168
2,3, 1, 3, 0, 5,10.00,20.00,Tuesday
8,67104479.15861049
2,3, 1, 3, 0, 5,20.00,30.00,Tuesday
8,67184608.22639062
2,3, 1, 3, 0, 5,30.00,40.00,Tuesday
8,66519952.37287502
2,3, 1, 3, 0, 5,40.00,50.00,Tuesday
8,66285230.54247976
2,3, 1, 3, 0, 5,50.00,60.00,Tuesday
8,66175750.775365636
2,3, 1, 3, 0, 6, 0.00,10.00,Tuesday
8,66447612.17373402
2,3, 1, 3, 0, 6,10.00,20.00,Tuesday
8,65920930.558324955
2,3, 1, 3, 0, 6,20.00,30.00,Tuesday
8,65812441.29190756
2,3, 1, 3, 0, 6,30.00,40.00,Tuesday
8,65835082.39404029
2,3, 1, 3, 0, 6,40.00,50.00,Tuesday
8,66016738.907776624
2,3, 1, 3, 0, 6,50.00,60.00,Tuesday
8,65480744.6216703
2,3, 1, 3, 0, 7, 0.00,10.00,Tuesday
8,65952022.94205962
2,3, 1, 3, 0, 7,10.00,20.00,Tuesday
8,66434065.24561726
2,3, 1, 3, 0, 7,20.00,30.00,Tuesday
8,67049214.421491094
2,3, 1, 3, 0, 7,30.00,40.00,Tuesday
8,66953395.49731732
2,3, 1, 3, 0, 7,40.00,50.00,Tuesday
8,67276764.2115016
2,3, 1, 3, 0, 7,50.00,60.00,Tuesday
8,67734620.65519944
2,3, 1, 3, 0, 8, 0.00,10.00,Tuesday
8,126207565.06429951
2,3, 1, 3, 0, 8,10.00,20.00,Tuesday
8,95879274.5770749
2,3, 1, 3, 0, 8,20.00,30.00,Tuesday
8,97565517.04160115
2,3, 1, 3, 0, 8,30.00,40.00,Tuesday
8,94084270.23791714
2,3, 1, 3, 0, 8,40.00,50.00,Tuesday
8,93067206.04644853
2,3, 1, 3, 0, 8,50.00,60.00,Tuesday
8,91615101.22959214
2,3, 1, 3, 0, 9, 0.00,10.00,Tuesday
8,122795347.92266339
2,3, 1, 3, 0, 9,10.00,20.00,Tuesday
8,131548921.95066436
2,3, 1, 3, 0, 9,20.00,30.00,Tuesday
8,95044451.68689446
2,3, 1, 3, 0, 9,30.00,40.00,Tuesday
8,108773815.31591156
2,3, 1, 3, 0, 9,40.00,50.00,Tuesday
8,104329063.41657221
2,3, 1, 3, 0, 9,50.00,60.00,Tuesday
8,103024285.45040731
2,3, 1, 3, 0,10, 0.00,10.00,Tuesday
8,189732058.41664016
2,3, 1, 3, 0,10,10.00,20.00,Tuesday
8,186750309.345132
2,3, 1, 3, 0,10,20.00,30.00,Tuesday
8,185136679.31773615
2,3, 1, 3, 0,10,30.00,40.00,Tuesday
8,184098125.22736976
2,3, 1, 3, 0,10,40.00,50.00,Tuesday
8,183221704.78803715
2,3, 1, 3, 0,10,50.00,60.00,Tuesday
8,182383243.3227796
2,3, 1, 3, 0,11, 0.00,10.00,Tuesday
8,175802276.74003252
2,3, 1, 3, 0,11,10.00,20.00,Tuesday
8,174449654.86000365
2,3, 1, 3, 0,11,20.00,30.00,Tuesday
8,173618768.23993745
2,3, 1, 3, 0,11,30.00,40.00,Tuesday
8,172991782.5230627
2,3, 1, 3, 0,11,40.00,50.00,Tuesday
8,172427274.2977303
2,3, 1, 3, 0,11,50.00,60.00,Tuesday
8,172029459.07577989
2,3, 1, 3, 0,12, 0.00,10.00,Tuesday
8,167020825.20827436
2,3, 1, 3, 0,12,10.00,20.00,Tuesday
8,165654231.16276264
2,3, 1, 3, 0,12,20.00,30.00,Tuesday
8,164635095.74171466
2,3, 1, 3, 0,12,30.00,40.00,Tuesday
8,163772402.00363255
2,3, 1, 3, 0,12,40.00,50.00,Tuesday
8,163034303.39493498
2,3, 1, 3, 0,12,50.00,60.00,Tuesday
8,162390241.11620566
2,3, 1, 3, 0,13, 0.00,10.00,Tuesday
8,159303157.87019342
2,3, 1, 3, 0,13,10.00,20.00,Tuesday
8,157601657.51682225
2,3, 1, 3, 0,13,20.00,30.00,Tuesday
8,156300507.9690427
2,3, 1, 3, 0,13,30.00,40.00,Tuesday
8,155104756.06335542
2,3, 1, 3, 0,13,40.00,50.00,Tuesday
8,153982530.39761326
2,3, 1, 3, 0,13,50.00,60.00,Tuesday
8,152907730.97727135
2,3, 1, 3, 0,14, 0.00,10.00,Tuesday
8,151495490.83162972
2,3, 1, 3, 0,14,10.00,20.00,Tuesday
8,150496850.80685738
2,3, 1, 3, 0,14,20.00,30.00,Tuesday
8,149598407.8593089
2,3, 1, 3, 0,14,30.00,40.00,Tuesday
8,148732595.401902
2,3, 1, 3, 0,14,40.00,50.00,Tuesday
8,147892481.0229835
2,3, 1, 3, 0,14,50.00,60.00,Tuesday
8,147075503.46215972
2,3, 1, 3, 0,15, 0.00,10.00,Tuesday
8,147196020.87427962
2,3, 1, 3, 0,15,10.00,20.00,Tuesday
8,146248727.79561424
2,3, 1, 3, 0,15,20.00,30.00,Tuesday
8,145241061.53092298
2,3, 1, 3, 0,15,30.00,40.00,Tuesday
8,144292025.22916222
2,3, 1, 3, 0,15,40.00,50.00,Tuesday
8,143380564.18802607
2,3, 1, 3, 0,15,50.00,60.00,Tuesday
8,142490557.58593425
2,3, 1, 3, 0,16, 0.00,10.00,Tuesday
8,144651587.36143222
2,3, 1, 3, 0,16,10.00,20.00,Tuesday
8,144829015.36269
2,3, 1, 3, 0,16,20.00,30.00,Tuesday
8,144872181.41260642
2,3, 1, 3, 0,16,30.00,40.00,Tuesday
8,145175277.88886064
2,3, 1, 3, 0,16,40.00,50.00,Tuesday
8,145588701.7855054
2,3, 1, 3, 0,16,50.00,60.00,Tuesday
8,146119725.0826212
2,3, 1, 3, 0,17, 0.00,10.00,Tuesday
8,148540224.6476832
2,3, 1, 3, 0,17,10.00,20.00,Tuesday
8,148879217.98294675
2,3, 1, 3, 0,17,20.00,30.00,Tuesday
8,149098252.5965375
2,3, 1, 3, 0,17,30.00,40.00,Tuesday
8,148724982.03944415
2,3, 1, 3, 0,17,40.00,50.00,Tuesday
8,148112651.88433456
2,3, 1, 3, 0,17,50.00,60.00,Tuesday
8,146811180.7498925
2,3, 1, 3, 0,18, 0.00,10.00,Tuesday
8,148258447.02636713
2,3, 1, 3, 0,18,10.00,20.00,Tuesday
8,148428088.33996785
2,3, 1, 3, 0,18,20.00,30.00,Tuesday
8,148141673.68153653
2,3, 1, 3, 0,18,30.00,40.00,Tuesday
8,147802113.54757944
2,3, 1, 3, 0,18,40.00,50.00,Tuesday
8,147381295.58884326
2,3, 1, 3, 0,18,50.00,60.00,Tuesday
8,146926916.74842358
2,3, 1, 3, 0,19, 0.00,10.00,Tuesday
8,146933512.6579301
2,3, 1, 3, 0,19,10.00,20.00,Tuesday
8,146273578.6583149
2,3, 1, 3, 0,19,20.00,30.00,Tuesday
8,145177870.4658564
2,3, 1, 3, 0,19,30.00,40.00,Tuesday
8,144710993.89078015
2,3, 1, 3, 0,19,40.00,50.00,Tuesday
8,143994982.15781924
2,3, 1, 3, 0,19,50.00,60.00,Tuesday
8,143120118.84323516
2,3, 1, 3, 0,20, 0.00,10.00,Tuesday
8,122087815.40510347
2,3, 1, 3, 0,20,10.00,20.00,Tuesday
8,122672199.45644018
2,3, 1, 3, 0,20,20.00,30.00,Tuesday
8,122673005.12367454
2,3, 1, 3, 0,20,30.00,40.00,Tuesday
8,124442954.01943304
2,3, 1, 3, 0,20,40.00,50.00,Tuesday
8,128113341.31660268
2,3, 1, 3, 0,20,50.00,60.00,Tuesday
8,124690258.67666474
2,3, 1, 3, 0,21, 0.00,10.00,Tuesday
8,127127242.8180061
2,3, 1, 3, 0,21,10.00,20.00,Tuesday
8,129771447.3650434
2,3, 1, 3, 0,21,20.00,30.00,Tuesday
8,131065719.81078148
2,3, 1, 3, 0,21,30.00,40.00,Tuesday
8,132652738.37066008
2,3, 1, 3, 0,21,40.00,50.00,Tuesday
8,134403629.467776
2,3, 1, 3, 0,21,50.00,60.00,Tuesday
8,135146262.95682734
2,3, 1, 3, 0,22, 0.00,10.00,Tuesday
8,9063459.847900905
2,3, 1, 3, 0,22,10.00,20.00,Tuesday
8,10549072.412083168
2,3, 1, 3, 0,22,20.00,30.00,Tuesday
8,13445782.146597752
2,3, 1, 3, 0,22,30.00,40.00,Tuesday
8,15951358.861919573
2,3, 1, 3, 0,22,40.00,50.00,Tuesday
8,20615268.48901382
2,3, 1, 3, 0,22,50.00,60.00,Tuesday
8,23455664.376901258
2,3, 1, 3, 0,23, 0.00,10.00,Tuesday
8,37454336.20907646
2,3, 1, 3, 0,23,10.00,20.00,Tuesday
8,37066064.50335913
2,3, 1, 3, 0,23,20.00,30.00,Tuesday
8,39745454.50016314
2,3, 1, 3, 0,23,30.00,40.00,Tuesday
8,40447696.20386135
2,3, 1, 3, 0,23,40.00,50.00,Tuesday
8,41573738.10313629
2,3, 1, 3, 0,23,50.00,60.00,Tuesday
8,42600330.163303845
2,3, 1, 3, 0,24, 0.00,10.00,Tuesday
8,46074002.96561592
2,3, 1, 3, 0,24,10.00,20.00,Tuesday
8,46125378.259676576
2,3, 1, 3, 0,24,20.00,30.00,Tuesday
8,46240519.31897408
2,3, 1, 3, 0,24,30.00,40.00,Tuesday
8,46283005.83530322
2,3, 1, 3, 0,24,40.00,50.00,Tuesday
8,46796049.64691195
2,3, 1, 3, 0,24,50.00,60.00,Tuesday
8,46132448.25825255
2,4, 1, 4, 0, 1, 0.00,10.00,Wednesday
8,46875063.79624135
2,4, 1, 4, 0, 1,10.00,20.00,Wednesday
8,46498881.45703197
2,4, 1, 4, 0, 1,20.00,30.00,Wednesday
8,46476807.08644775
2,4, 1, 4, 0, 1,30.00,40.00,Wednesday
8,45304357.99249199
2,4, 1, 4, 0, 1,40.00,50.00,Wednesday
8,44647883.710203245
2,4, 1, 4, 0, 1,50.00,60.00,Wednesday
8,43960101.01061037
2,4, 1, 4, 0, 2, 0.00,10.00,Wednesday
8,44813029.70392357
2,4, 1, 4, 0, 2,10.00,20.00,Wednesday
8,44008333.40534381
2,4, 1, 4, 0, 2,20.00,30.00,Wednesday
8,43665376.23732828
2,4, 1, 4, 0, 2,30.00,40.00,Wednesday
8,43304252.30574142
2,4, 1, 4, 0, 2,40.00,50.00,Wednesday
8,43482608.2030893
2,4, 1, 4, 0, 2,50.00,60.00,Wednesday
8,42533152.11975568
2,4, 1, 4, 0, 3, 0.00,10.00,Wednesday
8,42828224.27752359
2,4, 1, 4, 0, 3,10.00,20.00,Wednesday
8,42875332.93098059
2,4, 1, 4, 0, 3,20.00,30.00,Wednesday
8,43434852.810520455
2,4, 1, 4, 0, 3,30.00,40.00,Wednesday
8,42869348.80420364
2,4, 1, 4, 0, 3,40.00,50.00,Wednesday
8,42852160.4330805
2,4, 1, 4, 0, 3,50.00,60.00,Wednesday
8,42829265.07026758
2,4, 1, 4, 0, 4, 0.00,10.00,Wednesday
8,43986543.13635917
2,4, 1, 4, 0, 4,10.00,20.00,Wednesday
8,43987178.90053195
2,4, 1, 4, 0, 4,20.00,30.00,Wednesday
8,44545983.2817548
2,4, 1, 4, 0, 4,30.00,40.00,Wednesday
8,45109991.64937631
2,4, 1, 4, 0, 4,40.00,50.00,Wednesday
8,46234639.91320238
2,4, 1, 4, 0, 4,50.00,60.00,Wednesday
8,46245452.47748575
2,4, 1, 4, 0, 5, 0.00,10.00,Wednesday
8,46807800.43405601
2,4, 1, 4, 0, 5,10.00,20.00,Wednesday
8,47268464.93953142
2,4, 1, 4, 0, 5,20.00,30.00,Wednesday
8,48265316.150795065
2,4, 1, 4, 0, 5,30.00,40.00,Wednesday
8,48140078.62980231
2,4, 1, 4, 0, 5,40.00,50.00,Wednesday
8,48566682.70889276
2,4, 1, 4, 0, 5,50.00,60.00,Wednesday
8,48990615.652481236
2,4, 1, 4, 0, 6, 0.00,10.00,Wednesday
8,49572677.965854034
2,4, 1, 4, 0, 6,10.00,20.00,Wednesday
8,49013541.560995705
2,4, 1, 4, 0, 6,20.00,30.00,Wednesday
8,49010465.830810234
2,4, 1, 4, 0, 6,30.00,40.00,Wednesday
8,49008359.51187285
2,4, 1, 4, 0, 6,40.00,50.00,Wednesday
8,49564734.62634997
2,4, 1, 4, 0, 6,50.00,60.00,Wednesday
8,49003314.66455245
2,4, 1, 4, 0, 7, 0.00,10.00,Wednesday
8,49433402.24509003
2,4, 1, 4, 0, 7,10.00,20.00,Wednesday
8,49815963.6931136
2,4, 1, 4, 0, 7,20.00,30.00,Wednesday
8,50744981.1792067
2,4, 1, 4, 0, 7,30.00,40.00,Wednesday
8,50550088.09834882
2,4, 1, 4, 0, 7,40.00,50.00,Wednesday
8,50908952.26088948
2,4, 1, 4, 0, 7,50.00,60.00,Wednesday
8,51263834.04003411
2,4, 1, 4, 0, 8, 0.00,10.00,Wednesday
8,111831416.7004164
2,4, 1, 4, 0, 8,10.00,20.00,Wednesday
8,78605906.69143064
2,4, 1, 4, 0, 8,20.00,30.00,Wednesday
8,83188972.32812048
2,4, 1, 4, 0, 8,30.00,40.00,Wednesday
8,77727108.22707385
2,4, 1, 4, 0, 8,40.00,50.00,Wednesday
8,77227922.0115034
2,4, 1, 4, 0, 8,50.00,60.00,Wednesday
8,75868806.7129385
2,4, 1, 4, 0, 9, 0.00,10.00,Wednesday
8,117066468.7914788
2,4, 1, 4, 0, 9,10.00,20.00,Wednesday
8,111173795.82136759
2,4, 1, 4, 0, 9,20.00,30.00,Wednesday
8,87539975.47544684
2,4, 1, 4, 0, 9,30.00,40.00,Wednesday
8,90682608.41295959
2,4, 1, 4, 0, 9,40.00,50.00,Wednesday
8,89183822.07309905
2,4, 1, 4, 0, 9,50.00,60.00,Wednesday
8,88196325.02227955
2,4, 1, 4, 0,10, 0.00,10.00,Wednesday
8,175340436.0746835
2,4, 1, 4, 0,10,10.00,20.00,Wednesday
8,172617190.77697518
2,4, 1, 4, 0,10,20.00,30.00,Wednesday
8,171271726.85470152
2,4, 1, 4, 0,10,30.00,40.00,Wednesday
8,170385500.90514356
2,4, 1, 4, 0,10,40.00,50.00,Wednesday
8,169601195.4979834
2,4, 1, 4, 0,10,50.00,60.00,Wednesday
8,169005410.62570265
2,4, 1, 4, 0,11, 0.00,10.00,Wednesday
8,163650063.67234054
2,4, 1, 4, 0,11,10.00,20.00,Wednesday
8,162158456.32584584
2,4, 1, 4, 0,11,20.00,30.00,Wednesday
8,161191382.99891785
2,4, 1, 4, 0,11,30.00,40.00,Wednesday
8,160073972.3369479
2,4, 1, 4, 0,11,40.00,50.00,Wednesday
8,159057551.66683787
2,4, 1, 4, 0,11,50.00,60.00,Wednesday
8,158096075.23110205
2,4, 1, 4, 0,12, 0.00,10.00,Wednesday
8,154046885.6361651
2,4, 1, 4, 0,12,10.00,20.00,Wednesday
8,152149043.58090392
2,4, 1, 4, 0,12,20.00,30.00,Wednesday
8,150483782.09833446
2,4, 1, 4, 0,12,30.00,40.00,Wednesday
8,149086913.35024533
2,4, 1, 4, 0,12,40.00,50.00,Wednesday
8,147823890.7099455
2,4, 1, 4, 0,12,50.00,60.00,Wednesday
8,146800527.7173713
2,4, 1, 4, 0,13, 0.00,10.00,Wednesday
8,144837326.9678444
2,4, 1, 4, 0,13,10.00,20.00,Wednesday
8,144238091.77353063
2,4, 1, 4, 0,13,20.00,30.00,Wednesday
8,143812636.94148865
2,4, 1, 4, 0,13,30.00,40.00,Wednesday
8,143441193.146701
2,4, 1, 4, 0,13,40.00,50.00,Wednesday
8,143117523.56245258
2,4, 1, 4, 0,13,50.00,60.00,Wednesday
8,142828984.49112085
2,4, 1, 4, 0,14, 0.00,10.00,Wednesday
8,142382688.95318708
2,4, 1, 4, 0,14,10.00,20.00,Wednesday
8,142165000.3733169
2,4, 1, 4, 0,14,20.00,30.00,Wednesday
8,141966859.2757538
2,4, 1, 4, 0,14,30.00,40.00,Wednesday
8,141957897.49024287
2,4, 1, 4, 0,14,40.00,50.00,Wednesday
8,141914609.27679065
2,4, 1, 4, 0,14,50.00,60.00,Wednesday
8,141888447.14748216
2,4, 1, 4, 0,15, 0.00,10.00,Wednesday
8,142675179.515875
2,4, 1, 4, 0,15,10.00,20.00,Wednesday
8,142672435.82338104
2,4, 1, 4, 0,15,20.00,30.00,Wednesday
8,142701818.49688202
2,4, 1, 4, 0,15,30.00,40.00,Wednesday
8,142566547.59302902