Program Version,EnergyPlus, Version 23.2.0-7636e6b3e9, YMD=2025.01.19 15:47
1,5,Environment Title[],Latitude[deg],Longitude[deg],Time Zone[],Elevation[m]
2,8,Day of Simulation[],Month[],Day of Month[],DST Indicator[1=yes 0=no],Hour[],StartMinute[],EndMinute[],DayType
3,5,Cumulative Day of Simulation[],Month[],Day of Month[],DST Indicator[1=yes 0=no],DayType  ! When Daily Report Variables Requested
4,2,Cumulative Days of Simulation[],Month[]  ! When Monthly Report Variables Requested
5,1,Cumulative Days of Simulation[] ! When Run Period Report Variables Requested
6,1,Calendar Year of Simulation[] ! When Annual Report Variables Requested
9,1,Electricity:Facility [J] !TimeStep
End of Data Dictionary
1,RUN PERIOD 1,  51.53, -71.11,  -5.00, 549.00
2,1, 1, 1, 0, 1, 0.00,10.00,Sunday
9,37999591.31390804
2,1, 1, 1, 0, 1,10.00,20.00,Sunday
9,38096621.97031591
2,1, 1, 1, 0, 1,20.00,30.00,Sunday
9,37126533.31273314
2,1, 1, 1, 0, 1,30.00,40.00,Sunday
9,36023345.046838775
2,1, 1, 1, 0, 1,40.00,50.00,Sunday
9,35120573.31059312
2,1, 1, 1, 0, 1,50.00,60.00,Sunday
9,33110623.313478332
2,1, 1, 1, 0, 2, 0.00,10.00,Sunday
9,35673658.50229107
2,1, 1, 1, 0, 2,10.00,20.00,Sunday
9,36135072.45069172
2,1, 1, 1, 0, 2,20.00,30.00,Sunday
9,36622745.18525712
2,1, 1, 1, 0, 2,30.00,40.00,Sunday
9,36226333.297324106
2,1, 1, 1, 0, 2,40.00,50.00,Sunday
9,36172936.090213224
2,1, 1, 1, 0, 2,50.00,60.00,Sunday
9,36074443.112552255
2,1, 1, 1, 0, 3, 0.00,10.00,Sunday
9,37005074.1780203
2,1, 1, 1, 0, 3,10.00,20.00,Sunday
9,36586546.97930403
2,1, 1, 1, 0, 3,20.00,30.00,Sunday
9,36489883.075941324
2,1, 1, 1, 0, 3,30.00,40.00,Sunday
9,36377953.87626149
2,1, 1, 1, 0, 3,40.00,50.00,Sunday
9,36472404.19859814
2,1, 1, 1, 0, 3,50.00,60.00,Sunday
9,36296522.1725935
2,1, 1, 1, 0, 4, 0.00,10.00,Sunday
9,36261362.68547254
2,1, 1, 1, 0, 4,10.00,20.00,Sunday
9,36361602.506506205
2,1, 1, 1, 0, 4,20.00,30.00,Sunday
9,36462626.844402
2,1, 1, 1, 0, 4,30.00,40.00,Sunday
9,36968380.742584534
2,1, 1, 1, 0, 4,40.00,50.00,Sunday
9,36655989.69641142
2,1, 1, 1, 0, 4,50.00,60.00,Sunday
9,36774109.868671864
2,1, 1, 1, 0, 5, 0.00,10.00,Sunday
9,36424049.914133325
2,1, 1, 1, 0, 5,10.00,20.00,Sunday
9,36609427.10853647
2,1, 1, 1, 0, 5,20.00,30.00,Sunday
9,35989032.861654855
2,1, 1, 1, 0, 5,30.00,40.00,Sunday
9,35783601.3469085
2,1, 1, 1, 0, 5,40.00,50.00,Sunday
9,35578779.86134856
2,1, 1, 1, 0, 5,50.00,60.00,Sunday
9,35760603.809964165
2,1, 1, 1, 0, 6, 0.00,10.00,Sunday
9,35302271.432058275
2,1, 1, 1, 0, 6,10.00,20.00,Sunday
9,35284056.48528901
2,1, 1, 1, 0, 6,20.00,30.00,Sunday
9,35269573.27793443
2,1, 1, 1, 0, 6,30.00,40.00,Sunday
9,35275315.233565964
2,1, 1, 1, 0, 6,40.00,50.00,Sunday
9,35620067.17610647
2,1, 1, 1, 0, 6,50.00,60.00,Sunday
9,35219152.08828144
2,1, 1, 1, 0, 7, 0.00,10.00,Sunday
9,35823592.72480144
2,1, 1, 1, 0, 7,10.00,20.00,Sunday
9,36373802.28033981
2,1, 1, 1, 0, 7,20.00,30.00,Sunday
9,37339302.34433302
2,1, 1, 1, 0, 7,30.00,40.00,Sunday
9,37489377.457484365
2,1, 1, 1, 0, 7,40.00,50.00,Sunday
9,38052497.0620197
2,1, 1, 1, 0, 7,50.00,60.00,Sunday
9,38619573.91013812
2,1, 1, 1, 0, 8, 0.00,10.00,Sunday
9,39163520.40070936
2,1, 1, 1, 0, 8,10.00,20.00,Sunday
9,38845075.88291598
2,1, 1, 1, 0, 8,20.00,30.00,Sunday
9,38935583.29794137
2,1, 1, 1, 0, 8,30.00,40.00,Sunday
9,39026802.908331186
2,1, 1, 1, 0, 8,40.00,50.00,Sunday
9,39384292.47701053
2,1, 1, 1, 0, 8,50.00,60.00,Sunday
9,37815248.71889096
2,1, 1, 1, 0, 9, 0.00,10.00,Sunday
9,38971055.45388074
2,1, 1, 1, 0, 9,10.00,20.00,Sunday
9,37019644.84208818
2,1, 1, 1, 0, 9,20.00,30.00,Sunday
9,34565748.57263727
2,1, 1, 1, 0, 9,30.00,40.00,Sunday
9,32657179.302314725
2,1, 1, 1, 0, 9,40.00,50.00,Sunday
9,31277861.67250076
2,1, 1, 1, 0, 9,50.00,60.00,Sunday
9,27030447.581650883
2,1, 1, 1, 0,10, 0.00,10.00,Sunday
9,150672883.87864575
2,1, 1, 1, 0,10,10.00,20.00,Sunday
9,119036884.19091183
2,1, 1, 1, 0,10,20.00,30.00,Sunday
9,120247485.76693007
2,1, 1, 1, 0,10,30.00,40.00,Sunday
9,127373871.82433544
2,1, 1, 1, 0,10,40.00,50.00,Sunday
9,116459977.13560645
2,1, 1, 1, 0,10,50.00,60.00,Sunday
9,122743095.06053682
2,1, 1, 1, 0,11, 0.00,10.00,Sunday
9,144975777.68768138
2,1, 1, 1, 0,11,10.00,20.00,Sunday
9,97341194.10626957
2,1, 1, 1, 0,11,20.00,30.00,Sunday
9,126776236.11993922
2,1, 1, 1, 0,11,30.00,40.00,Sunday
9,120933390.59184183
2,1, 1, 1, 0,11,40.00,50.00,Sunday
9,115271278.05956276
2,1, 1, 1, 0,11,50.00,60.00,Sunday
9,125121321.8856515
2,1, 1, 1, 0,12, 0.00,10.00,Sunday
9,114303751.33148536
2,1, 1, 1, 0,12,10.00,20.00,Sunday
9,116577148.43190594
2,1, 1, 1, 0,12,20.00,30.00,Sunday
9,109729870.54230224
2,1, 1, 1, 0,12,30.00,40.00,Sunday
9,113637661.15762381
2,1, 1, 1, 0,12,40.00,50.00,Sunday
9,107578280.61889417
2,1, 1, 1, 0,12,50.00,60.00,Sunday
9,111709719.3115724
2,1, 1, 1, 0,13, 0.00,10.00,Sunday
9,101061181.77188432
2,1, 1, 1, 0,13,10.00,20.00,Sunday
9,104349730.48699185
2,1, 1, 1, 0,13,20.00,30.00,Sunday
9,89315292.90560916
2,1, 1, 1, 0,13,30.00,40.00,Sunday
9,107244013.90929697
2,1, 1, 1, 0,13,40.00,50.00,Sunday
9,85734486.13352448
2,1, 1, 1, 0,13,50.00,60.00,Sunday
9,97751651.27906388
2,1, 1, 1, 0,14, 0.00,10.00,Sunday
9,93403399.0811258
2,1, 1, 1, 0,14,10.00,20.00,Sunday
9,99422267.48684798
2,1, 1, 1, 0,14,20.00,30.00,Sunday
9,93789873.66734031
2,1, 1, 1, 0,14,30.00,40.00,Sunday
9,105069597.15853953
2,1, 1, 1, 0,14,40.00,50.00,Sunday
9,91816798.34145892
2,1, 1, 1, 0,14,50.00,60.00,Sunday
9,100905786.19641091
2,1, 1, 1, 0,15, 0.00,10.00,Sunday
9,101265299.69447154
2,1, 1, 1, 0,15,10.00,20.00,Sunday
9,102379099.17865393
2,1, 1, 1, 0,15,20.00,30.00,Sunday
9,101658157.34709528
2,1, 1, 1, 0,15,30.00,40.00,Sunday
9,105135153.94542667
2,1, 1, 1, 0,15,40.00,50.00,Sunday
9,109373952.67538464
2,1, 1, 1, 0,15,50.00,60.00,Sunday
9,104850792.9147664
2,1, 1, 1, 0,16, 0.00,10.00,Sunday
9,116669445.52880669
2,1, 1, 1, 0,16,10.00,20.00,Sunday
9,109835756.4177118
2,1, 1, 1, 0,16,20.00,30.00,Sunday
9,124092549.40692696
2,1, 1, 1, 0,16,30.00,40.00,Sunday
9,113095384.05844115
2,1, 1, 1, 0,16,40.00,50.00,Sunday
9,131905528.85506807
2,1, 1, 1, 0,16,50.00,60.00,Sunday
9,112944918.87288833
2,1, 1, 1, 0,17, 0.00,10.00,Sunday
9,127758906.9611502
2,1, 1, 1, 0,17,10.00,20.00,Sunday
9,127403443.04885507
2,1, 1, 1, 0,17,20.00,30.00,Sunday
9,127107581.88150391
2,1, 1, 1, 0,17,30.00,40.00,Sunday
9,128423079.16598745
2,1, 1, 1, 0,17,40.00,50.00,Sunday
9,129627463.59197828
2,1, 1, 1, 0,17,50.00,60.00,Sunday
9,129977084.54431573
2,1, 1, 1, 0,18, 0.00,10.00,Sunday
9,132879319.47408758
2,1, 1, 1, 0,18,10.00,20.00,Sunday
9,134211308.0472027
2,1, 1, 1, 0,18,20.00,30.00,Sunday
9,133596373.27938268
2,1, 1, 1, 0,18,30.00,40.00,Sunday
9,138749446.5423912
2,1, 1, 1, 0,18,40.00,50.00,Sunday
9,129322782.31179613
2,1, 1, 1, 0,18,50.00,60.00,Sunday
9,136748473.7286039
2,1, 1, 1, 0,19, 0.00,10.00,Sunday
9,139503427.71634972
2,1, 1, 1, 0,19,10.00,20.00,Sunday
9,143805925.2976871
2,1, 1, 1, 0,19,20.00,30.00,Sunday
9,144099120.0160053
2,1, 1, 1, 0,19,30.00,40.00,Sunday
9,144561869.4356166
2,1, 1, 1, 0,19,40.00,50.00,Sunday
9,131543867.52239227
2,1, 1, 1, 0,19,50.00,60.00,Sunday
9,162983632.24386796
2,1, 1, 1, 0,20, 0.00,10.00,Sunday
9,11122727.875521692
2,1, 1, 1, 0,20,10.00,20.00,Sunday
9,11500131.435387423
2,1, 1, 1, 0,20,20.00,30.00,Sunday
9,13597057.48131575
2,1, 1, 1, 0,20,30.00,40.00,Sunday
9,15590965.537890082
2,1, 1, 1, 0,20,40.00,50.00,Sunday
9,16984552.89086825
2,1, 1, 1, 0,20,50.00,60.00,Sunday
9,21433702.93903775
2,1, 1, 1, 0,21, 0.00,10.00,Sunday
9,28291965.88999879
2,1, 1, 1, 0,21,10.00,20.00,Sunday
9,36536803.65837869
2,1, 1, 1, 0,21,20.00,30.00,Sunday
9,35501248.623660706
2,1, 1, 1, 0,21,30.00,40.00,Sunday
9,37164951.1026895
2,1, 1, 1, 0,21,40.00,50.00,Sunday
9,37299506.71297966
2,1, 1, 1, 0,21,50.00,60.00,Sunday
9,37723079.22133978
2,1, 1, 1, 0,22, 0.00,10.00,Sunday
9,41172654.37218696
2,1, 1, 1, 0,22,10.00,20.00,Sunday
9,42137619.10902453
2,1, 1, 1, 0,22,20.00,30.00,Sunday
9,42521221.49734634
2,1, 1, 1, 0,22,30.00,40.00,Sunday
9,42502607.61959688
2,1, 1, 1, 0,22,40.00,50.00,Sunday
9,42650574.87113945
2,1, 1, 1, 0,22,50.00,60.00,Sunday
9,42739733.03681186
2,1, 1, 1, 0,23, 0.00,10.00,Sunday
9,44745610.96283314
2,1, 1, 1, 0,23,10.00,20.00,Sunday
9,44767997.95149163
2,1, 1, 1, 0,23,20.00,30.00,Sunday
9,44998848.81002195
2,1, 1, 1, 0,23,30.00,40.00,Sunday
9,45201533.817898214
2,1, 1, 1, 0,23,40.00,50.00,Sunday
9,45783169.79800118
2,1, 1, 1, 0,23,50.00,60.00,Sunday
9,45518352.12778747
2,1, 1, 1, 0,24, 0.00,10.00,Sunday
9,46318880.71123131
2,1, 1, 1, 0,24,10.00,20.00,Sunday
9,46605356.75536074
2,1, 1, 1, 0,24,20.00,30.00,Sunday
9,47172674.301259376
2,1, 1, 1, 0,24,30.00,40.00,Sunday
9,47025507.04013416
2,1, 1, 1, 0,24,40.00,50.00,Sunday
9,47146498.839179166
2,1, 1, 1, 0,24,50.00,60.00,Sunday
9,47298720.178824365
2,2, 1, 2, 0, 1, 0.00,10.00,Monday
9,47776904.60083703
2,2, 1, 2, 0, 1,10.00,20.00,Monday
9,48578317.67595991
2,2, 1, 2, 0, 1,20.00,30.00,Monday
9,48562666.62084849
2,2, 1, 2, 0, 1,30.00,40.00,Monday
9,48956633.84321386
2,2, 1, 2, 0, 1,40.00,50.00,Monday
9,49351557.897328615
2,2, 1, 2, 0, 1,50.00,60.00,Monday
9,50156333.504506566
2,2, 1, 2, 0, 2, 0.00,10.00,Monday
9,49837777.71116938
2,2, 1, 2, 0, 2,10.00,20.00,Monday
9,49740489.55486057
2,2, 1, 2, 0, 2,20.00,30.00,Monday
9,49609115.796382844
2,2, 1, 2, 0, 2,30.00,40.00,Monday
9,49882111.432838775
2,2, 1, 2, 0, 2,40.00,50.00,Monday
9,49322259.51635092
2,2, 1, 2, 0, 2,50.00,60.00,Monday
9,49170058.506163746
2,2, 1, 2, 0, 3, 0.00,10.00,Monday
9,49252173.53360914
2,2, 1, 2, 0, 3,10.00,20.00,Monday
9,49509755.642148614
2,2, 1, 2, 0, 3,20.00,30.00,Monday
9,49497886.509876035
2,2, 1, 2, 0, 3,30.00,40.00,Monday
9,49342643.2180439
2,2, 1, 2, 0, 3,40.00,50.00,Monday
9,49372694.3244704
2,2, 1, 2, 0, 3,50.00,60.00,Monday
9,49402618.013519436
2,2, 1, 2, 0, 4, 0.00,10.00,Monday
9,50065282.550844826
2,2, 1, 2, 0, 4,10.00,20.00,Monday
9,49771871.55984886
2,2, 1, 2, 0, 4,20.00,30.00,Monday
9,49859763.47672733
2,2, 1, 2, 0, 4,30.00,40.00,Monday
9,49944045.82919391
2,2, 1, 2, 0, 4,40.00,50.00,Monday
9,50432352.9893124
2,2, 1, 2, 0, 4,50.00,60.00,Monday
9,50096643.790006645
2,2, 1, 2, 0, 5, 0.00,10.00,Monday
9,50354249.80220707
2,2, 1, 2, 0, 5,10.00,20.00,Monday
9,50607947.23279163
2,2, 1, 2, 0, 5,20.00,30.00,Monday
9,51278550.6749456
2,2, 1, 2, 0, 5,30.00,40.00,Monday
9,51124994.90230257
2,2, 1, 2, 0, 5,40.00,50.00,Monday
9,51386678.81511977
2,2, 1, 2, 0, 5,50.00,60.00,Monday
9,51650292.933705576
2,2, 1, 2, 0, 6, 0.00,10.00,Monday
9,51628716.4981679
2,2, 1, 2, 0, 6,10.00,20.00,Monday
9,51748296.91169349
2,2, 1, 2, 0, 6,20.00,30.00,Monday
9,51205599.79411989
2,2, 1, 2, 0, 6,30.00,40.00,Monday
9,51009687.16132023
2,2, 1, 2, 0, 6,40.00,50.00,Monday
9,50809873.13862704
2,2, 1, 2, 0, 6,50.00,60.00,Monday
9,51015520.870118156
2,2, 1, 2, 0, 7, 0.00,10.00,Monday
9,59976779.303553134
2,2, 1, 2, 0, 7,10.00,20.00,Monday
9,55331745.830917135
2,2, 1, 2, 0, 7,20.00,30.00,Monday
9,51653074.0352563
2,2, 1, 2, 0, 7,30.00,40.00,Monday
9,49624132.98514443
2,2, 1, 2, 0, 7,40.00,50.00,Monday
9,50633978.34807386
2,2, 1, 2, 0, 7,50.00,60.00,Monday
9,51567160.97626583
2,2, 1, 2, 0, 8, 0.00,10.00,Monday
9,102542190.61761057
2,2, 1, 2, 0, 8,10.00,20.00,Monday
9,74982058.72624727
2,2, 1, 2, 0, 8,20.00,30.00,Monday
9,62527128.03621628
2,2, 1, 2, 0, 8,30.00,40.00,Monday
9,67800371.60163166
2,2, 1, 2, 0, 8,40.00,50.00,Monday
9,54711625.385636985
2,2, 1, 2, 0, 8,50.00,60.00,Monday
9,63123209.62823843
2,2, 1, 2, 0, 9, 0.00,10.00,Monday
9,94560745.79685658
2,2, 1, 2, 0, 9,10.00,20.00,Monday
9,88792783.3433672
2,2, 1, 2, 0, 9,20.00,30.00,Monday
9,72427711.51644781
2,2, 1, 2, 0, 9,30.00,40.00,Monday
9,66949759.292845264
2,2, 1, 2, 0, 9,40.00,50.00,Monday
9,74004625.4208061
2,2, 1, 2, 0, 9,50.00,60.00,Monday
9,65675244.06412899
2,2, 1, 2, 0,10, 0.00,10.00,Monday
9,152364103.96780777
2,2, 1, 2, 0,10,10.00,20.00,Monday
9,149363598.73158497
2,2, 1, 2, 0,10,20.00,30.00,Monday
9,148989448.56012022
2,2, 1, 2, 0,10,30.00,40.00,Monday
9,149515523.58977893
2,2, 1, 2, 0,10,40.00,50.00,Monday
9,146922667.57117626
2,2, 1, 2, 0,10,50.00,60.00,Monday
9,143905388.1337484
2,2, 1, 2, 0,11, 0.00,10.00,Monday
9,131114553.52978624
2,2, 1, 2, 0,11,10.00,20.00,Monday
9,140708627.77911758
2,2, 1, 2, 0,11,20.00,30.00,Monday
9,121008937.69328289
2,2, 1, 2, 0,11,30.00,40.00,Monday
9,131941892.09975772
2,2, 1, 2, 0,11,40.00,50.00,Monday
9,129663434.11677404
2,2, 1, 2, 0,11,50.00,60.00,Monday
9,131967858.25731406
2,2, 1, 2, 0,12, 0.00,10.00,Monday
9,112244200.15698797
2,2, 1, 2, 0,12,10.00,20.00,Monday
9,121754445.41837074
2,2, 1, 2, 0,12,20.00,30.00,Monday
9,120173267.04886425
2,2, 1, 2, 0,12,30.00,40.00,Monday
9,122961703.12617864
2,2, 1, 2, 0,12,40.00,50.00,Monday
9,109194330.43195103
2,2, 1, 2, 0,12,50.00,60.00,Monday
9,117907503.18851547
2,2, 1, 2, 0,13, 0.00,10.00,Monday
9,115309425.78565969
2,2, 1, 2, 0,13,10.00,20.00,Monday
9,114873270.77846178
2,2, 1, 2, 0,13,20.00,30.00,Monday
9,113225689.97688186
2,2, 1, 2, 0,13,30.00,40.00,Monday
9,111123416.7325172
2,2, 1, 2, 0,13,40.00,50.00,Monday
9,106429984.26478276
2,2, 1, 2, 0,13,50.00,60.00,Monday
9,105688420.76614878
2,2, 1, 2, 0,14, 0.00,10.00,Monday
9,106399177.01748994
2,2, 1, 2, 0,14,10.00,20.00,Monday
9,106519658.35135056
2,2, 1, 2, 0,14,20.00,30.00,Monday
9,109190394.83020794
2,2, 1, 2, 0,14,30.00,40.00,Monday
9,110775060.3190687
2,2, 1, 2, 0,14,40.00,50.00,Monday
9,110602463.12612635
2,2, 1, 2, 0,14,50.00,60.00,Monday
9,110348543.65660457
2,2, 1, 2, 0,15, 0.00,10.00,Monday
9,108801266.20853108
2,2, 1, 2, 0,15,10.00,20.00,Monday
9,116329311.39677471
2,2, 1, 2, 0,15,20.00,30.00,Monday
9,118041776.58919862
2,2, 1, 2, 0,15,30.00,40.00,Monday
9,119403711.3283553
2,2, 1, 2, 0,15,40.00,50.00,Monday
9,120801501.430556
2,2, 1, 2, 0,15,50.00,60.00,Monday
9,124244663.38258743
2,2, 1, 2, 0,16, 0.00,10.00,Monday
9,130581437.29687358
2,2, 1, 2, 0,16,10.00,20.00,Monday
9,132294058.52000268
2,2, 1, 2, 0,16,20.00,30.00,Monday
9,134178839.82265598
2,2, 1, 2, 0,16,30.00,40.00,Monday
9,133833326.6414077
2,2, 1, 2, 0,16,40.00,50.00,Monday
9,141407196.51952946
2,2, 1, 2, 0,16,50.00,60.00,Monday
9,143450494.01194537
2,2, 1, 2, 0,17, 0.00,10.00,Monday
9,134717210.7355741
2,2, 1, 2, 0,17,10.00,20.00,Monday
9,158157481.09306037
2,2, 1, 2, 0,17,20.00,30.00,Monday
9,144151116.15467012
2,2, 1, 2, 0,17,30.00,40.00,Monday
9,147583982.53157073
2,2, 1, 2, 0,17,40.00,50.00,Monday
9,147300398.80338123
2,2, 1, 2, 0,17,50.00,60.00,Monday
9,143655258.0847943
2,2, 1, 2, 0,18, 0.00,10.00,Monday
9,149091758.18389773
2,2, 1, 2, 0,18,10.00,20.00,Monday
9,145841000.77314782
2,2, 1, 2, 0,18,20.00,30.00,Monday
9,148943893.45838627
2,2, 1, 2, 0,18,30.00,40.00,Monday
9,148877712.025504
2,2, 1, 2, 0,18,40.00,50.00,Monday
9,150106521.46822956
2,2, 1, 2, 0,18,50.00,60.00,Monday
9,149576330.12272993
2,2, 1, 2, 0,19, 0.00,10.00,Monday
9,155146247.1299746
2,2, 1, 2, 0,19,10.00,20.00,Monday
9,155964773.46144933
2,2, 1, 2, 0,19,20.00,30.00,Monday
9,150733201.48977765
2,2, 1, 2, 0,19,30.00,40.00,Monday
9,150467349.47251853
2,2, 1, 2, 0,19,40.00,50.00,Monday
9,146318294.1796501
2,2, 1, 2, 0,19,50.00,60.00,Monday
9,148744926.133543
2,2, 1, 2, 0,20, 0.00,10.00,Monday
9,121003508.706004
2,2, 1, 2, 0,20,10.00,20.00,Monday
9,154744666.8729846
2,2, 1, 2, 0,20,20.00,30.00,Monday
9,114648624.56842619
2,2, 1, 2, 0,20,30.00,40.00,Monday
9,157373374.98627388
2,2, 1, 2, 0,20,40.00,50.00,Monday
9,142148034.22531974
2,2, 1, 2, 0,20,50.00,60.00,Monday
9,144740292.560611
2,2, 1, 2, 0,21, 0.00,10.00,Monday
9,145280345.68514383
2,2, 1, 2, 0,21,10.00,20.00,Monday
9,145022093.96896604
2,2, 1, 2, 0,21,20.00,30.00,Monday
9,138158383.6481582
2,2, 1, 2, 0,21,30.00,40.00,Monday
9,144374244.03199795
2,2, 1, 2, 0,21,40.00,50.00,Monday
9,140066366.32079098
2,2, 1, 2, 0,21,50.00,60.00,Monday
9,143047340.42215937
2,2, 1, 2, 0,22, 0.00,10.00,Monday
9,1290079.1397195188
2,2, 1, 2, 0,22,10.00,20.00,Monday
9,7651503.536694005
2,2, 1, 2, 0,22,20.00,30.00,Monday
9,10035764.69590533
2,2, 1, 2, 0,22,30.00,40.00,Monday
9,10695916.224036202
2,2, 1, 2, 0,22,40.00,50.00,Monday
9,12691534.351958016
2,2, 1, 2, 0,22,50.00,60.00,Monday
9,19747501.848952442
2,2, 1, 2, 0,23, 0.00,10.00,Monday
9,30681310.460089765
2,2, 1, 2, 0,23,10.00,20.00,Monday
9,27440914.86623628
2,2, 1, 2, 0,23,20.00,30.00,Monday
9,30065321.183605593
2,2, 1, 2, 0,23,30.00,40.00,Monday
9,30741986.23504647
2,2, 1, 2, 0,23,40.00,50.00,Monday
9,31625551.912401825
2,2, 1, 2, 0,23,50.00,60.00,Monday
9,31536094.472619142
2,2, 1, 2, 0,24, 0.00,10.00,Monday
9,36025156.18601525
2,2, 1, 2, 0,24,10.00,20.00,Monday
9,37539579.042039454
2,2, 1, 2, 0,24,20.00,30.00,Monday
9,38874941.96625517
2,2, 1, 2, 0,24,30.00,40.00,Monday
9,39303509.27349748
2,2, 1, 2, 0,24,40.00,50.00,Monday
9,40048162.1041725
2,2, 1, 2, 0,24,50.00,60.00,Monday
9,40723253.020115234
2,3, 1, 3, 0, 1, 0.00,10.00,Tuesday
9,42090711.485758066
2,3, 1, 3, 0, 1,10.00,20.00,Tuesday
9,41784822.045118816
2,3, 1, 3, 0, 1,20.00,30.00,Tuesday
9,41073967.86856714
2,3, 1, 3, 0, 1,30.00,40.00,Tuesday
9,40514491.539707065
2,3, 1, 3, 0, 1,40.00,50.00,Tuesday
9,39915458.70217797
2,3, 1, 3, 0, 1,50.00,60.00,Tuesday
9,39697095.69348818
2,3, 1, 3, 0, 2, 0.00,10.00,Tuesday
9,40623000.3905303
2,3, 1, 3, 0, 2,10.00,20.00,Tuesday
9,41573146.859613985
2,3, 1, 3, 0, 2,20.00,30.00,Tuesday
9,42450698.046620674
2,3, 1, 3, 0, 2,30.00,40.00,Tuesday
9,43721910.02590657
2,3, 1, 3, 0, 2,40.00,50.00,Tuesday
9,44152804.2811107
2,3, 1, 3, 0, 2,50.00,60.00,Tuesday
9,44980162.99035202
2,3, 1, 3, 0, 3, 0.00,10.00,Tuesday
9,44197497.089121714
2,3, 1, 3, 0, 3,10.00,20.00,Tuesday
9,43738441.702080525
2,3, 1, 3, 0, 3,20.00,30.00,Tuesday
9,42438744.492757976
2,3, 1, 3, 0, 3,30.00,40.00,Tuesday
9,41552738.69682723
2,3, 1, 3, 0, 3,40.00,50.00,Tuesday
9,40664542.504218765
2,3, 1, 3, 0, 3,50.00,60.00,Tuesday
9,39856091.52415048
2,3, 1, 3, 0, 4, 0.00,10.00,Tuesday
9,40791093.16333
2,3, 1, 3, 0, 4,10.00,20.00,Tuesday
9,41115027.14947346
2,3, 1, 3, 0, 4,20.00,30.00,Tuesday
9,41750686.22958491
2,3, 1, 3, 0, 4,30.00,40.00,Tuesday
9,42376881.81712425
2,3, 1, 3, 0, 4,40.00,50.00,Tuesday
9,43403843.31540829
2,3, 1, 3, 0, 4,50.00,60.00,Tuesday
9,43605550.88800119
2,3, 1, 3, 0, 5, 0.00,10.00,Tuesday
9,43617265.36952678
2,3, 1, 3, 0, 5,10.00,20.00,Tuesday
9,43639020.699627005
2,3, 1, 3, 0, 5,20.00,30.00,Tuesday
9,44075448.65864531
2,3, 1, 3, 0, 5,30.00,40.00,Tuesday
9,43689559.66291411
2,3, 1, 3, 0, 5,40.00,50.00,Tuesday
9,43716474.848503634
2,3, 1, 3, 0, 5,50.00,60.00,Tuesday
9,43744591.23720685
2,3, 1, 3, 0, 6, 0.00,10.00,Tuesday
9,44097139.15324397
2,3, 1, 3, 0, 6,10.00,20.00,Tuesday
9,43790101.4775217
2,3, 1, 3, 0, 6,20.00,30.00,Tuesday
9,43672037.48571877
2,3, 1, 3, 0, 6,30.00,40.00,Tuesday
9,43621760.27857914
2,3, 1, 3, 0, 6,40.00,50.00,Tuesday
9,43568960.28921724
2,3, 1, 3, 0, 6,50.00,60.00,Tuesday
9,43920268.51386325
2,3, 1, 3, 0, 7, 0.00,10.00,Tuesday
9,55699723.48619608
2,3, 1, 3, 0, 7,10.00,20.00,Tuesday
9,50544514.488392375
2,3, 1, 3, 0, 7,20.00,30.00,Tuesday
9,46150258.589723796
2,3, 1, 3, 0, 7,30.00,40.00,Tuesday
9,45145902.87892792
2,3, 1, 3, 0, 7,40.00,50.00,Tuesday
9,45656910.176594816
2,3, 1, 3, 0, 7,50.00,60.00,Tuesday
9,45279756.252290286
2,3, 1, 3, 0, 8, 0.00,10.00,Tuesday
9,97396108.23116815
2,3, 1, 3, 0, 8,10.00,20.00,Tuesday
9,78904387.42093529
2,3, 1, 3, 0, 8,20.00,30.00,Tuesday
9,50586364.56081908
2,3, 1, 3, 0, 8,30.00,40.00,Tuesday
9,53685317.53954741
2,3, 1, 3, 0, 8,40.00,50.00,Tuesday
9,68747727.03393602
2,3, 1, 3, 0, 8,50.00,60.00,Tuesday
9,50151763.926567376
2,3, 1, 3, 0, 9, 0.00,10.00,Tuesday
9,91514629.13486248
2,3, 1, 3, 0, 9,10.00,20.00,Tuesday
9,92550606.65141512
2,3, 1, 3, 0, 9,20.00,30.00,Tuesday
9,55617085.70033854
2,3, 1, 3, 0, 9,30.00,40.00,Tuesday
9,60516485.928288236
2,3, 1, 3, 0, 9,40.00,50.00,Tuesday
9,62652811.83428361
2,3, 1, 3, 0, 9,50.00,60.00,Tuesday
9,56771056.10884671
2,3, 1, 3, 0,10, 0.00,10.00,Tuesday
9,132391418.03018478
2,3, 1, 3, 0,10,10.00,20.00,Tuesday
9,130049669.31736237
2,3, 1, 3, 0,10,20.00,30.00,Tuesday
9,128782755.41662055
2,3, 1, 3, 0,10,30.00,40.00,Tuesday
9,128364192.49624053
2,3, 1, 3, 0,10,40.00,50.00,Tuesday
9,127105112.00126986
2,3, 1, 3, 0,10,50.00,60.00,Tuesday
9,132269034.45415479
2,3, 1, 3, 0,11, 0.00,10.00,Tuesday
9,112076625.87325588
2,3, 1, 3, 0,11,10.00,20.00,Tuesday
9,121803998.86916628
2,3, 1, 3, 0,11,20.00,30.00,Tuesday
9,119833821.85573593
2,3, 1, 3, 0,11,30.00,40.00,Tuesday
9,117080952.6198186
2,3, 1, 3, 0,11,40.00,50.00,Tuesday
9,110813995.4775193
2,3, 1, 3, 0,11,50.00,60.00,Tuesday
9,119398514.70102799
2,3, 1, 3, 0,12, 0.00,10.00,Tuesday
9,102538173.53397737
2,3, 1, 3, 0,12,10.00,20.00,Tuesday
9,119895292.1543633
2,3, 1, 3, 0,12,20.00,30.00,Tuesday
9,110988768.87462126
2,3, 1, 3, 0,12,30.00,40.00,Tuesday
9,110737872.38410968
2,3, 1, 3, 0,12,40.00,50.00,Tuesday
9,107288373.7563547
2,3, 1, 3, 0,12,50.00,60.00,Tuesday
9,108944461.69721742
2,3, 1, 3, 0,13, 0.00,10.00,Tuesday
9,105813300.63006912
2,3, 1, 3, 0,13,10.00,20.00,Tuesday
9,101778681.67997828
2,3, 1, 3, 0,13,20.00,30.00,Tuesday
9,107572472.85872063
2,3, 1, 3, 0,13,30.00,40.00,Tuesday
9,107441512.34491226
2,3, 1, 3, 0,13,40.00,50.00,Tuesday
9,108480491.74855746
2,3, 1, 3, 0,13,50.00,60.00,Tuesday
9,104529137.73170048
2,3, 1, 3, 0,14, 0.00,10.00,Tuesday
9,105119153.90000057
2,3, 1, 3, 0,14,10.00,20.00,Tuesday
9,103882812.97864614
2,3, 1, 3, 0,14,20.00,30.00,Tuesday
9,105395662.94167244
2,3, 1, 3, 0,14,30.00,40.00,Tuesday
9,103494604.68225119
2,3, 1, 3, 0,14,40.00,50.00,Tuesday
9,105257619.54601632
2,3, 1, 3, 0,14,50.00,60.00,Tuesday
9,105750474.30426334
2,3, 1, 3, 0,15, 0.00,10.00,Tuesday
9,108576754.63472657
2,3, 1, 3, 0,15,10.00,20.00,Tuesday
9,102344190.82116853
2,3, 1, 3, 0,15,20.00,30.00,Tuesday
9,111172830.92895809
2,3, 1, 3, 0,15,30.00,40.00,Tuesday
9,112523598.88850671
2,3, 1, 3, 0,15,40.00,50.00,Tuesday
9,113910216.37653413
2,3, 1, 3, 0,15,50.00,60.00,Tuesday
9,114122437.31465963
2,3, 1, 3, 0,16, 0.00,10.00,Tuesday
9,117572866.45076524
2,3, 1, 3, 0,16,10.00,20.00,Tuesday
9,120880170.09916013
2,3, 1, 3, 0,16,20.00,30.00,Tuesday
9,120585232.40101224
2,3, 1, 3, 0,16,30.00,40.00,Tuesday
9,124596158.627693
2,3, 1, 3, 0,16,40.00,50.00,Tuesday
9,123274314.72241035
2,3, 1, 3, 0,16,50.00,60.00,Tuesday
9,128823044.42784914
2,3, 1, 3, 0,17, 0.00,10.00,Tuesday
9,132522850.73520604
2,3, 1, 3, 0,17,10.00,20.00,Tuesday
9,134304740.62345257
2,3, 1, 3, 0,17,20.00,30.00,Tuesday
9,136842340.48987404
2,3, 1, 3, 0,17,30.00,40.00,Tuesday
9,136096878.85898685
2,3, 1, 3, 0,17,40.00,50.00,Tuesday
9,141598337.36370516
2,3, 1, 3, 0,17,50.00,60.00,Tuesday
9,137042249.75864118
2,3, 1, 3, 0,18, 0.00,10.00,Tuesday
9,143776520.50313827
2,3, 1, 3, 0,18,10.00,20.00,Tuesday
9,145718510.80704415
2,3, 1, 3, 0,18,20.00,30.00,Tuesday
9,146462261.50680274
2,3, 1, 3, 0,18,30.00,40.00,Tuesday
9,144263577.8516857
2,3, 1, 3, 0,18,40.00,50.00,Tuesday
9,147275161.0093668
2,3, 1, 3, 0,18,50.00,60.00,Tuesday
9,145428241.03565717
2,3, 1, 3, 0,19, 0.00,10.00,Tuesday
9,148391138.2398384
2,3, 1, 3, 0,19,10.00,20.00,Tuesday
9,145925105.96889132
2,3, 1, 3, 0,19,20.00,30.00,Tuesday
9,148544775.36358306
2,3, 1, 3, 0,19,30.00,40.00,Tuesday
9,145142843.72970563
2,3, 1, 3, 0,19,40.00,50.00,Tuesday
9,148281789.5487077
2,3, 1, 3, 0,19,50.00,60.00,Tuesday
9,145164469.54588613
2,3, 1, 3, 0,20, 0.00,10.00,Tuesday
9,125240757.86036551
2,3, 1, 3, 0,20,10.00,20.00,Tuesday
9,151978101.98222625
2,3, 1, 3, 0,20,20.00,30.00,Tuesday
9,139283529.78200862
2,3, 1, 3, 0,20,30.00,40.00,Tuesday
9,143408898.68949127
2,3, 1, 3, 0,20,40.00,50.00,Tuesday
9,144613814.66518578
2,3, 1, 3, 0,20,50.00,60.00,Tuesday
9,145774398.8983745
2,3, 1, 3, 0,21, 0.00,10.00,Tuesday
9,146523046.3190885
2,3, 1, 3, 0,21,10.00,20.00,Tuesday
9,147376476.67767245
2,3, 1, 3, 0,21,20.00,30.00,Tuesday
9,144194794.3510793
2,3, 1, 3, 0,21,30.00,40.00,Tuesday
9,147308755.9323678
2,3, 1, 3, 0,21,40.00,50.00,Tuesday
9,145729378.15733117
2,3, 1, 3, 0,21,50.00,60.00,Tuesday
9,146959647.8849404
2,3, 1, 3, 0,22, 0.00,10.00,Tuesday
9,1290079.1397195188
2,3, 1, 3, 0,22,10.00,20.00,Tuesday
9,5123071.947150562
2,3, 1, 3, 0,22,20.00,30.00,Tuesday
9,8100652.10828057
2,3, 1, 3, 0,22,30.00,40.00,Tuesday
9,9845536.493684845
2,3, 1, 3, 0,22,40.00,50.00,Tuesday
9,12230093.992985995
2,3, 1, 3, 0,22,50.00,60.00,Tuesday
9,13374119.528950794
2,3, 1, 3, 0,23, 0.00,10.00,Tuesday
9,18378340.179776806
2,3, 1, 3, 0,23,10.00,20.00,Tuesday
9,29652365.442956444
2,3, 1, 3, 0,23,20.00,30.00,Tuesday
9,31429564.17308306
2,3, 1, 3, 0,23,30.00,40.00,Tuesday
9,30614841.551159147
2,3, 1, 3, 0,23,40.00,50.00,Tuesday
9,32254692.759773087
2,3, 1, 3, 0,23,50.00,60.00,Tuesday
9,32256885.543201435
2,3, 1, 3, 0,24, 0.00,10.00,Tuesday
9,37176867.90562112
2,3, 1, 3, 0,24,10.00,20.00,Tuesday
9,38910817.59941271
2,3, 1, 3, 0,24,20.00,30.00,Tuesday
9,40429905.397006884
2,3, 1, 3, 0,24,30.00,40.00,Tuesday
9,41038280.875648886
2,3, 1, 3, 0,24,40.00,50.00,Tuesday
9,41959887.545981035
2,3, 1, 3, 0,24,50.00,60.00,Tuesday
9,42811407.61987954
2,4, 1, 4, 0, 1, 0.00,10.00,Wednesday
9,44766136.979572125
2,4, 1, 4, 0, 1,10.00,20.00,Wednesday
9,45240437.54936288
2,4, 1, 4, 0, 1,20.00,30.00,Wednesday
9,45064723.455708556
2,4, 1, 4, 0, 1,30.00,40.00,Wednesday
9,45102404.88445789
2,4, 1, 4, 0, 1,40.00,50.00,Wednesday
9,45087363.783418804
2,4, 1, 4, 0, 1,50.00,60.00,Wednesday
9,45441410.01891849
2,4, 1, 4, 0, 2, 0.00,10.00,Wednesday
9,45533220.2781959
2,4, 1, 4, 0, 2,10.00,20.00,Wednesday
9,45796992.84860414
2,4, 1, 4, 0, 2,20.00,30.00,Wednesday
9,46015953.48910709
2,4, 1, 4, 0, 2,30.00,40.00,Wednesday
9,46632517.53434523
2,4, 1, 4, 0, 2,40.00,50.00,Wednesday
9,46411138.40553023
2,4, 1, 4, 0, 2,50.00,60.00,Wednesday
9,46588153.83715419
2,4, 1, 4, 0, 3, 0.00,10.00,Wednesday
9,46314586.88809051
2,4, 1, 4, 0, 3,10.00,20.00,Wednesday
9,46511053.73944775
2,4, 1, 4, 0, 3,20.00,30.00,Wednesday
9,45911866.29880002
2,4, 1, 4, 0, 3,30.00,40.00,Wednesday
9,45701548.36801937
2,4, 1, 4, 0, 3,40.00,50.00,Wednesday
9,45500208.18658311
2,4, 1, 4, 0, 3,50.00,60.00,Wednesday
9,45319657.78886273
2,4, 1, 4, 0, 4, 0.00,10.00,Wednesday
9,45600611.55954189
2,4, 1, 4, 0, 4,10.00,20.00,Wednesday
9,45297713.95870909
2,4, 1, 4, 0, 4,20.00,30.00,Wednesday
9,45410881.242006496
2,4, 1, 4, 0, 4,30.00,40.00,Wednesday
9,45530513.01294547
2,4, 1, 4, 0, 4,40.00,50.00,Wednesday
9,46063209.43567479
2,4, 1, 4, 0, 4,50.00,60.00,Wednesday
9,45780943.463998444
2,4, 1, 4, 0, 5, 0.00,10.00,Wednesday
9,45721324.83016245
2,4, 1, 4, 0, 5,10.00,20.00,Wednesday
9,45701236.07095553
2,4, 1, 4, 0, 5,20.00,30.00,Wednesday
9,46099695.28494847
2,4, 1, 4, 0, 5,30.00,40.00,Wednesday
9,45674762.947083876
2,4, 1, 4, 0, 5,40.00,50.00,Wednesday
9,45662906.88399933
2,4, 1, 4, 0, 5,50.00,60.00,Wednesday
9,45652346.96235415
2,4, 1, 4, 0, 6, 0.00,10.00,Wednesday
9,45897124.75215547
2,4, 1, 4, 0, 6,10.00,20.00,Wednesday
9,45613182.58093365
2,4, 1, 4, 0, 6,20.00,30.00,Wednesday
9,45444157.94286548
2,4, 1, 4, 0, 6,30.00,40.00,Wednesday
9,45371059.11023815
2,4, 1, 4, 0, 6,40.00,50.00,Wednesday
9,45295698.83369507
2,4, 1, 4, 0, 6,50.00,60.00,Wednesday
9,45626363.638842344
2,4, 1, 4, 0, 7, 0.00,10.00,Wednesday
9,58371433.6220942
2,4, 1, 4, 0, 7,10.00,20.00,Wednesday
9,51488988.58056338
2,4, 1, 4, 0, 7,20.00,30.00,Wednesday
9,48433516.780184366
2,4, 1, 4, 0, 7,30.00,40.00,Wednesday
9,49017542.404772244
2,4, 1, 4, 0, 7,40.00,50.00,Wednesday
9,49879596.611817464
2,4, 1, 4, 0, 7,50.00,60.00,Wednesday
9,51363460.32275552
2,4, 1, 4, 0, 8, 0.00,10.00,Wednesday
9,102664730.19725573
2,4, 1, 4, 0, 8,10.00,20.00,Wednesday
9,75225315.11860366
2,4, 1, 4, 0, 8,20.00,30.00,Wednesday
9,62181865.41306533
2,4, 1, 4, 0, 8,30.00,40.00,Wednesday
9,67947749.04107511
2,4, 1, 4, 0, 8,40.00,50.00,Wednesday
9,54615409.720504254
2,4, 1, 4, 0, 8,50.00,60.00,Wednesday
9,65555331.397630535
2,4, 1, 4, 0, 9, 0.00,10.00,Wednesday
9,97423143.8385123
2,4, 1, 4, 0, 9,10.00,20.00,Wednesday
9,91868597.65376297
2,4, 1, 4, 0, 9,20.00,30.00,Wednesday
9,91549961.1595221
2,4, 1, 4, 0, 9,30.00,40.00,Wednesday
9,66974175.8365122
2,4, 1, 4, 0, 9,40.00,50.00,Wednesday
9,82078582.64735126
2,4, 1, 4, 0, 9,50.00,60.00,Wednesday
9,65111924.03679681
2,4, 1, 4, 0,10, 0.00,10.00,Wednesday
9,150985687.0274816
2,4, 1, 4, 0,10,10.00,20.00,Wednesday
9,156421797.69474882
2,4, 1, 4, 0,10,20.00,30.00,Wednesday
9,149253841.44593072
2,4, 1, 4, 0,10,30.00,40.00,Wednesday
9,136114349.9372236
2,4, 1, 4, 0,10,40.00,50.00,Wednesday
9,170651480.1787841
2,4, 1, 4, 0,10,50.00,60.00,Wednesday
9,144705437.3763805
2,4, 1, 4, 0,11, 0.00,10.00,Wednesday
9,145021446.09648463
2,4, 1, 4, 0,11,10.00,20.00,Wednesday
9,142999086.44209224
2,4, 1, 4, 0,11,20.00,30.00,Wednesday
9,139205599.2331087
2,4, 1, 4, 0,11,30.00,40.00,Wednesday
9,133807858.66734768
2,4, 1, 4, 0,11,40.00,50.00,Wednesday
9,130081666.71845353
2,4, 1, 4, 0,11,50.00,60.00,Wednesday
9,134920995.87198037
2,4, 1, 4, 0,12, 0.00,10.00,Wednesday
9,132328521.49226575
2,4, 1, 4, 0,12,10.00,20.00,Wednesday
9,129403142.39232947
2,4, 1, 4, 0,12,20.00,30.00,Wednesday
9,121076324.08211207
2,4, 1, 4, 0,12,30.00,40.00,Wednesday
9,123203380.09497002
2,4, 1, 4, 0,12,40.00,50.00,Wednesday
9,117936857.22737367
2,4, 1, 4, 0,12,50.00,60.00,Wednesday
9,121768033.7209825
2,4, 1, 4, 0,13, 0.00,10.00,Wednesday
9,107095587.24375498
2,4, 1, 4, 0,13,10.00,20.00,Wednesday
9,117010743.34742628
2,4, 1, 4, 0,13,20.00,30.00,Wednesday
9,110214294.34813753
2,4, 1, 4, 0,13,30.00,40.00,Wednesday
9,115266522.6483533
2,4, 1, 4, 0,13,40.00,50.00,Wednesday
9,97446806.64825004
2,4, 1, 4, 0,13,50.00,60.00,Wednesday
9,107515912.91594031
2,4, 1, 4, 0,14, 0.00,10.00,Wednesday
9,102326566.38513811
2,4, 1, 4, 0,14,10.00,20.00,Wednesday
9,101552172.90396601
2,4, 1, 4, 0,14,20.00,30.00,Wednesday
9,102656952.51231946
2,4, 1, 4, 0,14,30.00,40.00,Wednesday
9,104139762.87549044
2,4, 1, 4, 0,14,40.00,50.00,Wednesday
9,97883524.31649724
2,4, 1, 4, 0,14,50.00,60.00,Wednesday
9,102338494.17050904
2,4, 1, 4, 0,15, 0.00,10.00,Wednesday
9,103688392.50081885
2,4, 1, 4, 0,15,10.00,20.00,Wednesday
9,102405649.51152413
2,4, 1, 4, 0,15,20.00,30.00,Wednesday
9,107569032.50852889
2,4, 1, 4, 0,15,30.00,40.00,Wednesday
9,111894764.386827