Program Version,EnergyPlus, Version 23.2.0-7636e6b3e9, YMD=2025.01.19 15:45
1,5,Environment Title[],Latitude[deg],Longitude[deg],Time Zone[],Elevation[m]
2,8,Day of Simulation[],Month[],Day of Month[],DST Indicator[1=yes 0=no],Hour[],StartMinute[],EndMinute[],DayType
3,5,Cumulative Day of Simulation[],Month[],Day of Month[],DST Indicator[1=yes 0=no],DayType  ! When Daily Report Variables Requested
4,2,Cumulative Days of Simulation[],Month[]  ! When Monthly Report Variables Requested
5,1,Cumulative Days of Simulation[] ! When Run Period Report Variables Requested
6,1,Calendar Year of Simulation[] ! When Annual Report Variables Requested
8,1,Electricity:Facility [J] !TimeStep
End of Data Dictionary
1,RUN PERIOD 1,  51.53, -71.11,  -5.00, 549.00
2,1, 1, 1, 0, 1, 0.00,10.00,Sunday
8,62190965.147625335
2,1, 1, 1, 0, 1,10.00,20.00,Sunday
8,56092913.56541373
2,1, 1, 1, 0, 1,20.00,30.00,Sunday
8,48943817.97684908
2,1, 1, 1, 0, 1,30.00,40.00,Sunday
8,41810722.305340715
2,1, 1, 1, 0, 1,40.00,50.00,Sunday
8,33572170.109293625
2,1, 1, 1, 0, 1,50.00,60.00,Sunday
8,25016643.372489907
2,1, 1, 1, 0, 2, 0.00,10.00,Sunday
8,27125928.59746378
2,1, 1, 1, 0, 2,10.00,20.00,Sunday
8,27918021.192372978
2,1, 1, 1, 0, 2,20.00,30.00,Sunday
8,27999134.849654745
2,1, 1, 1, 0, 2,30.00,40.00,Sunday
8,27858048.496255234
2,1, 1, 1, 0, 2,40.00,50.00,Sunday
8,27897681.209174562
2,1, 1, 1, 0, 2,50.00,60.00,Sunday
8,28150658.014116995
2,1, 1, 1, 0, 3, 0.00,10.00,Sunday
8,28811760.28495046
2,1, 1, 1, 0, 3,10.00,20.00,Sunday
8,28586346.173498306
2,1, 1, 1, 0, 3,20.00,30.00,Sunday
8,28575310.56098132
2,1, 1, 1, 0, 3,30.00,40.00,Sunday
8,28753888.300348844
2,1, 1, 1, 0, 3,40.00,50.00,Sunday
8,28853585.033104997
2,1, 1, 1, 0, 3,50.00,60.00,Sunday
8,28444959.13767884
2,1, 1, 1, 0, 4, 0.00,10.00,Sunday
8,29363862.68477215
2,1, 1, 1, 0, 4,10.00,20.00,Sunday
8,30343519.267955016
2,1, 1, 1, 0, 4,20.00,30.00,Sunday
8,31339330.069583684
2,1, 1, 1, 0, 4,30.00,40.00,Sunday
8,31728983.869505785
2,1, 1, 1, 0, 4,40.00,50.00,Sunday
8,32491784.96994646
2,1, 1, 1, 0, 4,50.00,60.00,Sunday
8,33423713.573467907
2,1, 1, 1, 0, 5, 0.00,10.00,Sunday
8,32749877.21393816
2,1, 1, 1, 0, 5,10.00,20.00,Sunday
8,31502366.108209677
2,1, 1, 1, 0, 5,20.00,30.00,Sunday
8,30677256.570470143
2,1, 1, 1, 0, 5,30.00,40.00,Sunday
8,29992206.59320197
2,1, 1, 1, 0, 5,40.00,50.00,Sunday
8,29475652.136630725
2,1, 1, 1, 0, 5,50.00,60.00,Sunday
8,28251615.879723374
2,1, 1, 1, 0, 6, 0.00,10.00,Sunday
8,28288144.942242883
2,1, 1, 1, 0, 6,10.00,20.00,Sunday
8,28418285.07098219
2,1, 1, 1, 0, 6,20.00,30.00,Sunday
8,28737354.335787345
2,1, 1, 1, 0, 6,30.00,40.00,Sunday
8,28299414.516902104
2,1, 1, 1, 0, 6,40.00,50.00,Sunday
8,28295822.09731879
2,1, 1, 1, 0, 6,50.00,60.00,Sunday
8,28400968.02647884
2,1, 1, 1, 0, 7, 0.00,10.00,Sunday
8,31075398.385964405
2,1, 1, 1, 0, 7,10.00,20.00,Sunday
8,32954171.44506132
2,1, 1, 1, 0, 7,20.00,30.00,Sunday
8,35295491.62471875
2,1, 1, 1, 0, 7,30.00,40.00,Sunday
8,37758078.91609776
2,1, 1, 1, 0, 7,40.00,50.00,Sunday
8,40477714.98593876
2,1, 1, 1, 0, 7,50.00,60.00,Sunday
8,42415783.9844775
2,1, 1, 1, 0, 8, 0.00,10.00,Sunday
8,42676050.749735884
2,1, 1, 1, 0, 8,10.00,20.00,Sunday
8,43059530.43622422
2,1, 1, 1, 0, 8,20.00,30.00,Sunday
8,43703835.41916046
2,1, 1, 1, 0, 8,30.00,40.00,Sunday
8,43540602.715739645
2,1, 1, 1, 0, 8,40.00,50.00,Sunday
8,43833489.91048134
2,1, 1, 1, 0, 8,50.00,60.00,Sunday
8,43594869.465965085
2,1, 1, 1, 0, 9, 0.00,10.00,Sunday
8,41310955.65695949
2,1, 1, 1, 0, 9,10.00,20.00,Sunday
8,38360584.90729357
2,1, 1, 1, 0, 9,20.00,30.00,Sunday
8,35834181.373827316
2,1, 1, 1, 0, 9,30.00,40.00,Sunday
8,33351228.705228582
2,1, 1, 1, 0, 9,40.00,50.00,Sunday
8,31151929.396152034
2,1, 1, 1, 0, 9,50.00,60.00,Sunday
8,28124662.205727577
2,1, 1, 1, 0,10, 0.00,10.00,Sunday
8,69214958.91763654
2,1, 1, 1, 0,10,10.00,20.00,Sunday
8,16206190.559298279
2,1, 1, 1, 0,10,20.00,30.00,Sunday
8,42490986.2356906
2,1, 1, 1, 0,10,30.00,40.00,Sunday
8,41867636.33890933
2,1, 1, 1, 0,10,40.00,50.00,Sunday
8,40006842.19301934
2,1, 1, 1, 0,10,50.00,60.00,Sunday
8,41209617.714020975
2,1, 1, 1, 0,11, 0.00,10.00,Sunday
8,80680581.81455696
2,1, 1, 1, 0,11,10.00,20.00,Sunday
8,72292047.81605652
2,1, 1, 1, 0,11,20.00,30.00,Sunday
8,67586876.20512003
2,1, 1, 1, 0,11,30.00,40.00,Sunday
8,69472227.02883679
2,1, 1, 1, 0,11,40.00,50.00,Sunday
8,73919301.48798327
2,1, 1, 1, 0,11,50.00,60.00,Sunday
8,77993055.15518771
2,1, 1, 1, 0,12, 0.00,10.00,Sunday
8,159485416.10559255
2,1, 1, 1, 0,12,10.00,20.00,Sunday
8,157599821.68944955
2,1, 1, 1, 0,12,20.00,30.00,Sunday
8,156202555.91899544
2,1, 1, 1, 0,12,30.00,40.00,Sunday
8,154360895.16965744
2,1, 1, 1, 0,12,40.00,50.00,Sunday
8,154104456.4394481
2,1, 1, 1, 0,12,50.00,60.00,Sunday
8,153259648.42504686
2,1, 1, 1, 0,13, 0.00,10.00,Sunday
8,148193604.53664583
2,1, 1, 1, 0,13,10.00,20.00,Sunday
8,146876600.6903074
2,1, 1, 1, 0,13,20.00,30.00,Sunday
8,145969774.98020527
2,1, 1, 1, 0,13,30.00,40.00,Sunday
8,145289915.40311337
2,1, 1, 1, 0,13,40.00,50.00,Sunday
8,144959893.7377562
2,1, 1, 1, 0,13,50.00,60.00,Sunday
8,144553112.48940066
2,1, 1, 1, 0,14, 0.00,10.00,Sunday
8,147198961.47904554
2,1, 1, 1, 0,14,10.00,20.00,Sunday
8,149633653.77627042
2,1, 1, 1, 0,14,20.00,30.00,Sunday
8,152820449.90309897
2,1, 1, 1, 0,14,30.00,40.00,Sunday
8,156707968.13003603
2,1, 1, 1, 0,14,40.00,50.00,Sunday
8,159303553.63768983
2,1, 1, 1, 0,14,50.00,60.00,Sunday
8,162637941.27613392
2,1, 1, 1, 0,15, 0.00,10.00,Sunday
8,161387008.50306407
2,1, 1, 1, 0,15,10.00,20.00,Sunday
8,158288869.95733786
2,1, 1, 1, 0,15,20.00,30.00,Sunday
8,155866485.55822763
2,1, 1, 1, 0,15,30.00,40.00,Sunday
8,154023437.94236505
2,1, 1, 1, 0,15,40.00,50.00,Sunday
8,151204879.42675266
2,1, 1, 1, 0,15,50.00,60.00,Sunday
8,149164849.26452485
2,1, 1, 1, 0,16, 0.00,10.00,Sunday
8,152384216.98801172
2,1, 1, 1, 0,16,10.00,20.00,Sunday
8,154780997.3503529
2,1, 1, 1, 0,16,20.00,30.00,Sunday
8,157044456.5233204
2,1, 1, 1, 0,16,30.00,40.00,Sunday
8,159502268.67717373
2,1, 1, 1, 0,16,40.00,50.00,Sunday
8,161335633.33087593
2,1, 1, 1, 0,16,50.00,60.00,Sunday
8,163076625.92587912
2,1, 1, 1, 0,17, 0.00,10.00,Sunday
8,163139196.1189627
2,1, 1, 1, 0,17,10.00,20.00,Sunday
8,162282248.3055302
2,1, 1, 1, 0,17,20.00,30.00,Sunday
8,161165445.423753
2,1, 1, 1, 0,17,30.00,40.00,Sunday
8,160130627.8196608
2,1, 1, 1, 0,17,40.00,50.00,Sunday
8,158887223.38292748
2,1, 1, 1, 0,17,50.00,60.00,Sunday
8,157537644.66911763
2,1, 1, 1, 0,18, 0.00,10.00,Sunday
8,157092568.1792071
2,1, 1, 1, 0,18,10.00,20.00,Sunday
8,155932624.69463953
2,1, 1, 1, 0,18,20.00,30.00,Sunday
8,154135896.34016576
2,1, 1, 1, 0,18,30.00,40.00,Sunday
8,152825609.01378095
2,1, 1, 1, 0,18,40.00,50.00,Sunday
8,151643845.92215186
2,1, 1, 1, 0,18,50.00,60.00,Sunday
8,150097444.24224368
2,1, 1, 1, 0,19, 0.00,10.00,Sunday
8,150956825.75828826
2,1, 1, 1, 0,19,10.00,20.00,Sunday
8,155103220.82313964
2,1, 1, 1, 0,19,20.00,30.00,Sunday
8,159415687.00961983
2,1, 1, 1, 0,19,30.00,40.00,Sunday
8,162730830.12542632
2,1, 1, 1, 0,19,40.00,50.00,Sunday
8,167111060.7872844
2,1, 1, 1, 0,19,50.00,60.00,Sunday
8,171045840.8429419
2,1, 1, 1, 0,20, 0.00,10.00,Sunday
8,19529720.29300794
2,1, 1, 1, 0,20,10.00,20.00,Sunday
8,24726058.5079261
2,1, 1, 1, 0,20,20.00,30.00,Sunday
8,41793449.964687884
2,1, 1, 1, 0,20,30.00,40.00,Sunday
8,51760671.97983881
2,1, 1, 1, 0,20,40.00,50.00,Sunday
8,57348893.32173806
2,1, 1, 1, 0,20,50.00,60.00,Sunday
8,56372524.95012752
2,1, 1, 1, 0,21, 0.00,10.00,Sunday
8,62842315.95611975
2,1, 1, 1, 0,21,10.00,20.00,Sunday
8,64880654.7145065
2,1, 1, 1, 0,21,20.00,30.00,Sunday
8,64682515.233580984
2,1, 1, 1, 0,21,30.00,40.00,Sunday
8,64957179.83889229
2,1, 1, 1, 0,21,40.00,50.00,Sunday
8,65081337.83037878
2,1, 1, 1, 0,21,50.00,60.00,Sunday
8,65653737.19113738
2,1, 1, 1, 0,22, 0.00,10.00,Sunday
8,67634396.86968638
2,1, 1, 1, 0,22,10.00,20.00,Sunday
8,67876738.9279541
2,1, 1, 1, 0,22,20.00,30.00,Sunday
8,67665512.6106716
2,1, 1, 1, 0,22,30.00,40.00,Sunday
8,67947343.05907367
2,1, 1, 1, 0,22,40.00,50.00,Sunday
8,67027561.11664521
2,1, 1, 1, 0,22,50.00,60.00,Sunday
8,66610826.99924677
2,1, 1, 1, 0,23, 0.00,10.00,Sunday
8,68146523.56978205
2,1, 1, 1, 0,23,10.00,20.00,Sunday
8,69193487.96627499
2,1, 1, 1, 0,23,20.00,30.00,Sunday
8,68935030.80443178
2,1, 1, 1, 0,23,30.00,40.00,Sunday
8,69209137.42176567
2,1, 1, 1, 0,23,40.00,50.00,Sunday
8,69451942.31790806
2,1, 1, 1, 0,23,50.00,60.00,Sunday
8,70234168.06938182
2,1, 1, 1, 0,24, 0.00,10.00,Sunday
8,71135830.3593021
2,1, 1, 1, 0,24,10.00,20.00,Sunday
8,72120498.58208056
2,1, 1, 1, 0,24,20.00,30.00,Sunday
8,73020157.79112077
2,1, 1, 1, 0,24,30.00,40.00,Sunday
8,74464579.74450937
2,1, 1, 1, 0,24,40.00,50.00,Sunday
8,74766220.36131816
2,1, 1, 1, 0,24,50.00,60.00,Sunday
8,75617942.5536407
2,2, 1, 2, 0, 1, 0.00,10.00,Monday
8,77011582.62598036
2,2, 1, 2, 0, 1,10.00,20.00,Monday
8,78890684.43047644
2,2, 1, 2, 0, 1,20.00,30.00,Monday
8,79640024.14472824
2,2, 1, 2, 0, 1,30.00,40.00,Monday
8,80957342.61948514
2,2, 1, 2, 0, 1,40.00,50.00,Monday
8,82276854.16231325
2,2, 1, 2, 0, 1,50.00,60.00,Monday
8,84161183.13989383
2,2, 1, 2, 0, 2, 0.00,10.00,Monday
8,83167986.68516557
2,2, 1, 2, 0, 2,10.00,20.00,Monday
8,82566582.98541014
2,2, 1, 2, 0, 2,20.00,30.00,Monday
8,81930667.20718022
2,2, 1, 2, 0, 2,30.00,40.00,Monday
8,81848571.8443763
2,2, 1, 2, 0, 2,40.00,50.00,Monday
8,80627955.25578433
2,2, 1, 2, 0, 2,50.00,60.00,Monday
8,79964022.86098261
2,2, 1, 2, 0, 3, 0.00,10.00,Monday
8,79796794.48008122
2,2, 1, 2, 0, 3,10.00,20.00,Monday
8,80153224.6006556
2,2, 1, 2, 0, 3,20.00,30.00,Monday
8,79374566.39284915
2,2, 1, 2, 0, 3,30.00,40.00,Monday
8,79159901.66427289
2,2, 1, 2, 0, 3,40.00,50.00,Monday
8,78943692.47207032
2,2, 1, 2, 0, 3,50.00,60.00,Monday
8,79188054.3584515
2,2, 1, 2, 0, 4, 0.00,10.00,Monday
8,79405147.65862828
2,2, 1, 2, 0, 4,10.00,20.00,Monday
8,79770893.29977776
2,2, 1, 2, 0, 4,20.00,30.00,Monday
8,80215580.3390536
2,2, 1, 2, 0, 4,30.00,40.00,Monday
8,81021701.42925495
2,2, 1, 2, 0, 4,40.00,50.00,Monday
8,81278571.9121123
2,2, 1, 2, 0, 4,50.00,60.00,Monday
8,81514780.59274589
2,2, 1, 2, 0, 5, 0.00,10.00,Monday
8,82406140.16619745
2,2, 1, 2, 0, 5,10.00,20.00,Monday
8,83592883.39411102
2,2, 1, 2, 0, 5,20.00,30.00,Monday
8,84457310.78048123
2,2, 1, 2, 0, 5,30.00,40.00,Monday
8,85096140.18074574
2,2, 1, 2, 0, 5,40.00,50.00,Monday
8,86002394.51035737
2,2, 1, 2, 0, 5,50.00,60.00,Monday
8,87154539.91507629
2,2, 1, 2, 0, 6, 0.00,10.00,Monday
8,86282312.5779167
2,2, 1, 2, 0, 6,10.00,20.00,Monday
8,84940358.32640396
2,2, 1, 2, 0, 6,20.00,30.00,Monday
8,83893635.71866907
2,2, 1, 2, 0, 6,30.00,40.00,Monday
8,83042147.74935825
2,2, 1, 2, 0, 6,40.00,50.00,Monday
8,82122189.00164689
2,2, 1, 2, 0, 6,50.00,60.00,Monday
8,80694415.94079015
2,2, 1, 2, 0, 7, 0.00,10.00,Monday
8,77392882.80807461
2,2, 1, 2, 0, 7,10.00,20.00,Monday
8,74180278.92644748
2,2, 1, 2, 0, 7,20.00,30.00,Monday
8,70957844.66886373
2,2, 1, 2, 0, 7,30.00,40.00,Monday
8,67137756.306157
2,2, 1, 2, 0, 7,40.00,50.00,Monday
8,63676084.31639413
2,2, 1, 2, 0, 7,50.00,60.00,Monday
8,60355641.52860713
2,2, 1, 2, 0, 8, 0.00,10.00,Monday
8,118261420.6955017
2,2, 1, 2, 0, 8,10.00,20.00,Monday
8,89728144.14413853
2,2, 1, 2, 0, 8,20.00,30.00,Monday
8,91589994.76291928
2,2, 1, 2, 0, 8,30.00,40.00,Monday
8,88348455.96025608
2,2, 1, 2, 0, 8,40.00,50.00,Monday
8,87601643.12971248
2,2, 1, 2, 0, 8,50.00,60.00,Monday
8,86072435.27694213
2,2, 1, 2, 0, 9, 0.00,10.00,Monday
8,121486466.84519812
2,2, 1, 2, 0, 9,10.00,20.00,Monday
8,126707249.39348584
2,2, 1, 2, 0, 9,20.00,30.00,Monday
8,97454270.46761301
2,2, 1, 2, 0, 9,30.00,40.00,Monday
8,109352058.0498661
2,2, 1, 2, 0, 9,40.00,50.00,Monday
8,107601878.44909707
2,2, 1, 2, 0, 9,50.00,60.00,Monday
8,108600977.974464
2,2, 1, 2, 0,10, 0.00,10.00,Monday
8,201751757.71238884
2,2, 1, 2, 0,10,10.00,20.00,Monday
8,197997951.30041653
2,2, 1, 2, 0,10,20.00,30.00,Monday
8,195701199.92450434
2,2, 1, 2, 0,10,30.00,40.00,Monday
8,193939428.5911961
2,2, 1, 2, 0,10,40.00,50.00,Monday
8,192261155.54739147
2,2, 1, 2, 0,10,50.00,60.00,Monday
8,190668992.54289466
2,2, 1, 2, 0,11, 0.00,10.00,Monday
8,184099452.46489108
2,2, 1, 2, 0,11,10.00,20.00,Monday
8,181791385.59980515
2,2, 1, 2, 0,11,20.00,30.00,Monday
8,180073690.75167438
2,2, 1, 2, 0,11,30.00,40.00,Monday
8,178300139.8261519
2,2, 1, 2, 0,11,40.00,50.00,Monday
8,176494365.41504171
2,2, 1, 2, 0,11,50.00,60.00,Monday
8,174798635.22868443
2,2, 1, 2, 0,12, 0.00,10.00,Monday
8,170854674.81743383
2,2, 1, 2, 0,12,10.00,20.00,Monday
8,169532346.37255874
2,2, 1, 2, 0,12,20.00,30.00,Monday
8,168531403.83532932
2,2, 1, 2, 0,12,30.00,40.00,Monday
8,167730804.52983204
2,2, 1, 2, 0,12,40.00,50.00,Monday
8,167057562.4457843
2,2, 1, 2, 0,12,50.00,60.00,Monday
8,166506537.9065225
2,2, 1, 2, 0,13, 0.00,10.00,Monday
8,162526467.72008428
2,2, 1, 2, 0,13,10.00,20.00,Monday
8,159874909.9277313
2,2, 1, 2, 0,13,20.00,30.00,Monday
8,157549042.62628087
2,2, 1, 2, 0,13,30.00,40.00,Monday
8,155338743.01332963
2,2, 1, 2, 0,13,40.00,50.00,Monday
8,153216731.82939863
2,2, 1, 2, 0,13,50.00,60.00,Monday
8,151161026.2290554
2,2, 1, 2, 0,14, 0.00,10.00,Monday
8,154294373.37601364
2,2, 1, 2, 0,14,10.00,20.00,Monday
8,157578054.92103133
2,2, 1, 2, 0,14,20.00,30.00,Monday
8,160988661.76810336
2,2, 1, 2, 0,14,30.00,40.00,Monday
8,164602041.3103678
2,2, 1, 2, 0,14,40.00,50.00,Monday
8,168327116.89996994
2,2, 1, 2, 0,14,50.00,60.00,Monday
8,172121761.89529547
2,2, 1, 2, 0,15, 0.00,10.00,Monday
8,173079545.64743567
2,2, 1, 2, 0,15,10.00,20.00,Monday
8,172869922.63671076
2,2, 1, 2, 0,15,20.00,30.00,Monday
8,172584043.16813463
2,2, 1, 2, 0,15,30.00,40.00,Monday
8,172330479.81545705
2,2, 1, 2, 0,15,40.00,50.00,Monday
8,172077175.036445
2,2, 1, 2, 0,15,50.00,60.00,Monday
8,171840407.82903668
2,2, 1, 2, 0,16, 0.00,10.00,Monday
8,174961288.715623
2,2, 1, 2, 0,16,10.00,20.00,Monday
8,176848352.83856615
2,2, 1, 2, 0,16,20.00,30.00,Monday
8,178505118.37812105
2,2, 1, 2, 0,16,30.00,40.00,Monday
8,180420115.70910013
2,2, 1, 2, 0,16,40.00,50.00,Monday
8,181817556.8873617
2,2, 1, 2, 0,16,50.00,60.00,Monday
8,183002245.51007056
2,2, 1, 2, 0,17, 0.00,10.00,Monday
8,183309197.9256227
2,2, 1, 2, 0,17,10.00,20.00,Monday
8,182507736.77823007
2,2, 1, 2, 0,17,20.00,30.00,Monday
8,181348046.0911951
2,2, 1, 2, 0,17,30.00,40.00,Monday
8,180132260.5492827
2,2, 1, 2, 0,17,40.00,50.00,Monday
8,178838403.85288164
2,2, 1, 2, 0,17,50.00,60.00,Monday
8,176912426.84764996
2,2, 1, 2, 0,18, 0.00,10.00,Monday
8,178654256.84396917
2,2, 1, 2, 0,18,10.00,20.00,Monday
8,179910012.40776977
2,2, 1, 2, 0,18,20.00,30.00,Monday
8,180926110.63533545
2,2, 1, 2, 0,18,30.00,40.00,Monday
8,181889068.42175815
2,2, 1, 2, 0,18,40.00,50.00,Monday
8,182821499.61689436
2,2, 1, 2, 0,18,50.00,60.00,Monday
8,183730761.20196325
2,2, 1, 2, 0,19, 0.00,10.00,Monday
8,181306294.74368042
2,2, 1, 2, 0,19,10.00,20.00,Monday
8,178613514.7448113
2,2, 1, 2, 0,19,20.00,30.00,Monday
8,175416006.8306059
2,2, 1, 2, 0,19,30.00,40.00,Monday
8,172851857.21325967
2,2, 1, 2, 0,19,40.00,50.00,Monday
8,170207610.5398102
2,2, 1, 2, 0,19,50.00,60.00,Monday
8,167341852.70363328
2,2, 1, 2, 0,20, 0.00,10.00,Monday
8,142638194.65917242
2,2, 1, 2, 0,20,10.00,20.00,Monday
8,148837867.8755207
2,2, 1, 2, 0,20,20.00,30.00,Monday
8,155063737.74005297
2,2, 1, 2, 0,20,30.00,40.00,Monday
8,159042868.44066855
2,2, 1, 2, 0,20,40.00,50.00,Monday
8,161300142.5247187
2,2, 1, 2, 0,20,50.00,60.00,Monday
8,164173246.33148777
2,2, 1, 2, 0,21, 0.00,10.00,Monday
8,164484627.09438416
2,2, 1, 2, 0,21,10.00,20.00,Monday
8,165947562.5048371
2,2, 1, 2, 0,21,20.00,30.00,Monday
8,166122787.50692084
2,2, 1, 2, 0,21,30.00,40.00,Monday
8,166254863.0826661
2,2, 1, 2, 0,21,40.00,50.00,Monday
8,166914550.57227573
2,2, 1, 2, 0,21,50.00,60.00,Monday
8,166560333.02033412
2,2, 1, 2, 0,22, 0.00,10.00,Monday
8,19010542.0879781
2,2, 1, 2, 0,22,10.00,20.00,Monday
8,22559665.66488003
2,2, 1, 2, 0,22,20.00,30.00,Monday
8,34765725.1900693
2,2, 1, 2, 0,22,30.00,40.00,Monday
8,41392244.15082302
2,2, 1, 2, 0,22,40.00,50.00,Monday
8,46705298.81048606
2,2, 1, 2, 0,22,50.00,60.00,Monday
8,44018422.92382339
2,2, 1, 2, 0,23, 0.00,10.00,Monday
8,49002081.28584167
2,2, 1, 2, 0,23,10.00,20.00,Monday
8,49837662.358446606
2,2, 1, 2, 0,23,20.00,30.00,Monday
8,49924883.01552403
2,2, 1, 2, 0,23,30.00,40.00,Monday
8,48786372.95518006
2,2, 1, 2, 0,23,40.00,50.00,Monday
8,48023508.07284425
2,2, 1, 2, 0,23,50.00,60.00,Monday
8,47121734.67058132
2,2, 1, 2, 0,24, 0.00,10.00,Monday
8,52386839.39224827
2,2, 1, 2, 0,24,10.00,20.00,Monday
8,54314798.0813637
2,2, 1, 2, 0,24,20.00,30.00,Monday
8,56361923.83776061
2,2, 1, 2, 0,24,30.00,40.00,Monday
8,58348211.71444497
2,2, 1, 2, 0,24,40.00,50.00,Monday
8,60813485.8179455
2,2, 1, 2, 0,24,50.00,60.00,Monday
8,62120697.14002398
2,3, 1, 3, 0, 1, 0.00,10.00,Tuesday
8,60825747.93520232
2,3, 1, 3, 0, 1,10.00,20.00,Tuesday
8,58491776.94396824
2,3, 1, 3, 0, 1,20.00,30.00,Tuesday
8,56433409.6286371
2,3, 1, 3, 0, 1,30.00,40.00,Tuesday
8,53363277.77688005
2,3, 1, 3, 0, 1,40.00,50.00,Tuesday
8,50802293.46529328
2,3, 1, 3, 0, 1,50.00,60.00,Tuesday
8,48308645.76208174
2,3, 1, 3, 0, 2, 0.00,10.00,Tuesday
8,53058095.6419137
2,3, 1, 3, 0, 2,10.00,20.00,Tuesday
8,56523962.55492436
2,3, 1, 3, 0, 2,20.00,30.00,Tuesday
8,60393409.17426162
2,3, 1, 3, 0, 2,30.00,40.00,Tuesday
8,64314764.30702487
2,3, 1, 3, 0, 2,40.00,50.00,Tuesday
8,68492254.50158617
2,3, 1, 3, 0, 2,50.00,60.00,Tuesday
8,71788526.70231293
2,3, 1, 3, 0, 3, 0.00,10.00,Tuesday
8,67948614.31548333
2,3, 1, 3, 0, 3,10.00,20.00,Tuesday
8,64140019.34792496
2,3, 1, 3, 0, 3,20.00,30.00,Tuesday
8,60574790.81019437
2,3, 1, 3, 0, 3,30.00,40.00,Tuesday
8,56215698.33682048
2,3, 1, 3, 0, 3,40.00,50.00,Tuesday
8,52315590.711481296
2,3, 1, 3, 0, 3,50.00,60.00,Tuesday
8,48536590.07433303
2,3, 1, 3, 0, 4, 0.00,10.00,Tuesday
8,51884050.19178553
2,3, 1, 3, 0, 4,10.00,20.00,Tuesday
8,54376854.2503295
2,3, 1, 3, 0, 4,20.00,30.00,Tuesday
8,57272466.90320756
2,3, 1, 3, 0, 4,30.00,40.00,Tuesday
8,60259934.437384866
2,3, 1, 3, 0, 4,40.00,50.00,Tuesday
8,63408146.81961829
2,3, 1, 3, 0, 4,50.00,60.00,Tuesday
8,65782861.571126305
2,3, 1, 3, 0, 5, 0.00,10.00,Tuesday
8,65811351.55773896
2,3, 1, 3, 0, 5,10.00,20.00,Tuesday
8,65959752.99316823
2,3, 1, 3, 0, 5,20.00,30.00,Tuesday
8,66282394.44332221
2,3, 1, 3, 0, 5,30.00,40.00,Tuesday
8,65877464.901769005
2,3, 1, 3, 0, 5,40.00,50.00,Tuesday
8,65901596.353711516
2,3, 1, 3, 0, 5,50.00,60.00,Tuesday
8,66057265.500828825
2,3, 1, 3, 0, 6, 0.00,10.00,Tuesday
8,66369365.137355894
2,3, 1, 3, 0, 6,10.00,20.00,Tuesday
8,65911101.82622192
2,3, 1, 3, 0, 6,20.00,30.00,Tuesday
8,65864952.47002386
2,3, 1, 3, 0, 6,30.00,40.00,Tuesday
8,65948366.8376138
2,3, 1, 3, 0, 6,40.00,50.00,Tuesday
8,66182551.43567402
2,3, 1, 3, 0, 6,50.00,60.00,Tuesday
8,65705146.288497776
2,3, 1, 3, 0, 7, 0.00,10.00,Tuesday
8,65029190.7105286
2,3, 1, 3, 0, 7,10.00,20.00,Tuesday
8,64509516.00039383
2,3, 1, 3, 0, 7,20.00,30.00,Tuesday
8,64139099.101509236
2,3, 1, 3, 0, 7,30.00,40.00,Tuesday
8,63062614.44871296
2,3, 1, 3, 0, 7,40.00,50.00,Tuesday
8,62404187.02275028
2,3, 1, 3, 0, 7,50.00,60.00,Tuesday
8,61880733.00787674
2,3, 1, 3, 0, 8, 0.00,10.00,Tuesday
8,117242475.70385738
2,3, 1, 3, 0, 8,10.00,20.00,Tuesday
8,87126194.45839514
2,3, 1, 3, 0, 8,20.00,30.00,Tuesday
8,87386747.26060566
2,3, 1, 3, 0, 8,30.00,40.00,Tuesday
8,82778664.61148128
2,3, 1, 3, 0, 8,40.00,50.00,Tuesday
8,80564749.08776179
2,3, 1, 3, 0, 8,50.00,60.00,Tuesday
8,77792381.76834041
2,3, 1, 3, 0, 9, 0.00,10.00,Tuesday
8,116750610.56220508
2,3, 1, 3, 0, 9,10.00,20.00,Tuesday
8,110697134.90497789
2,3, 1, 3, 0, 9,20.00,30.00,Tuesday
8,87300623.18357249
2,3, 1, 3, 0, 9,30.00,40.00,Tuesday
8,88925862.49646714
2,3, 1, 3, 0, 9,40.00,50.00,Tuesday
8,86527406.30150893
2,3, 1, 3, 0, 9,50.00,60.00,Tuesday
8,84558088.77591637
2,3, 1, 3, 0,10, 0.00,10.00,Tuesday
8,166960609.74727368
2,3, 1, 3, 0,10,10.00,20.00,Tuesday
8,163207968.3793434
2,3, 1, 3, 0,10,20.00,30.00,Tuesday
8,160870089.0621734
2,3, 1, 3, 0,10,30.00,40.00,Tuesday
8,159088627.48755205
2,3, 1, 3, 0,10,40.00,50.00,Tuesday
8,157428368.87707174
2,3, 1, 3, 0,10,50.00,60.00,Tuesday
8,155870038.9553584
2,3, 1, 3, 0,11, 0.00,10.00,Tuesday
8,149787995.0899209
2,3, 1, 3, 0,11,10.00,20.00,Tuesday
8,147852204.92222273
2,3, 1, 3, 0,11,20.00,30.00,Tuesday
8,146482783.1415841
2,3, 1, 3, 0,11,30.00,40.00,Tuesday
8,145249255.57399318
2,3, 1, 3, 0,11,40.00,50.00,Tuesday
8,144031779.46800503
2,3, 1, 3, 0,11,50.00,60.00,Tuesday
8,142947556.8666628
2,3, 1, 3, 0,12, 0.00,10.00,Tuesday
8,140086658.90336567
2,3, 1, 3, 0,12,10.00,20.00,Tuesday
8,139245692.03166172
2,3, 1, 3, 0,12,20.00,30.00,Tuesday
8,138682118.50024548
2,3, 1, 3, 0,12,30.00,40.00,Tuesday
8,138262044.06541377
2,3, 1, 3, 0,12,40.00,50.00,Tuesday
8,137926093.1319196
2,3, 1, 3, 0,12,50.00,60.00,Tuesday
8,137679129.74143597
2,3, 1, 3, 0,13, 0.00,10.00,Tuesday
8,136865805.02167428
2,3, 1, 3, 0,13,10.00,20.00,Tuesday
8,136347311.17089355
2,3, 1, 3, 0,13,20.00,30.00,Tuesday
8,136056475.62646323
2,3, 1, 3, 0,13,30.00,40.00,Tuesday
8,135648659.34743467
2,3, 1, 3, 0,13,40.00,50.00,Tuesday
8,135209276.8247593
2,3, 1, 3, 0,13,50.00,60.00,Tuesday
8,134756586.3109615
2,3, 1, 3, 0,14, 0.00,10.00,Tuesday
8,134925950.72038713
2,3, 1, 3, 0,14,10.00,20.00,Tuesday
8,135458653.05840772
2,3, 1, 3, 0,14,20.00,30.00,Tuesday
8,136070235.36987945
2,3, 1, 3, 0,14,30.00,40.00,Tuesday
8,136832650.43918502
2,3, 1, 3, 0,14,40.00,50.00,Tuesday
8,137673367.14480767
2,3, 1, 3, 0,14,50.00,60.00,Tuesday
8,138566692.2847332
2,3, 1, 3, 0,15, 0.00,10.00,Tuesday
8,138323272.65516198
2,3, 1, 3, 0,15,10.00,20.00,Tuesday
8,137850401.65979293
2,3, 1, 3, 0,15,20.00,30.00,Tuesday
8,137330991.15267622
2,3, 1, 3, 0,15,30.00,40.00,Tuesday
8,137068879.84882155
2,3, 1, 3, 0,15,40.00,50.00,Tuesday
8,136917742.3334231
2,3, 1, 3, 0,15,50.00,60.00,Tuesday
8,136850254.36968875
2,3, 1, 3, 0,16, 0.00,10.00,Tuesday
8,136770956.66775554
2,3, 1, 3, 0,16,10.00,20.00,Tuesday
8,135755584.98460928
2,3, 1, 3, 0,16,20.00,30.00,Tuesday
8,134622179.7463243
2,3, 1, 3, 0,16,30.00,40.00,Tuesday
8,133261449.8150877
2,3, 1, 3, 0,16,40.00,50.00,Tuesday
8,132116383.43177283
2,3, 1, 3, 0,16,50.00,60.00,Tuesday
8,130462085.59508605
2,3, 1, 3, 0,17, 0.00,10.00,Tuesday
8,132525328.33082645
2,3, 1, 3, 0,17,10.00,20.00,Tuesday
8,133499703.17554438
2,3, 1, 3, 0,17,20.00,30.00,Tuesday
8,134154368.28477237
2,3, 1, 3, 0,17,30.00,40.00,Tuesday
8,134746873.735363
2,3, 1, 3, 0,17,40.00,50.00,Tuesday
8,135248091.71603206
2,3, 1, 3, 0,17,50.00,60.00,Tuesday
8,135097130.8646333
2,3, 1, 3, 0,18, 0.00,10.00,Tuesday
8,136516121.76404098
2,3, 1, 3, 0,18,10.00,20.00,Tuesday
8,137215554.70543525
2,3, 1, 3, 0,18,20.00,30.00,Tuesday
8,137594496.80555525
2,3, 1, 3, 0,18,30.00,40.00,Tuesday
8,137928904.4185431
2,3, 1, 3, 0,18,40.00,50.00,Tuesday
8,138220396.74187204
2,3, 1, 3, 0,18,50.00,60.00,Tuesday
8,138480828.79129106
2,3, 1, 3, 0,19, 0.00,10.00,Tuesday
8,138804598.14008042
2,3, 1, 3, 0,19,10.00,20.00,Tuesday
8,138713266.70396376
2,3, 1, 3, 0,19,20.00,30.00,Tuesday
8,138250009.35843882
2,3, 1, 3, 0,19,30.00,40.00,Tuesday
8,138423706.27904233
2,3, 1, 3, 0,19,40.00,50.00,Tuesday
8,138360480.8621334
2,3, 1, 3, 0,19,50.00,60.00,Tuesday
8,138147080.04733887
2,3, 1, 3, 0,20, 0.00,10.00,Tuesday
8,121671509.83874974
2,3, 1, 3, 0,20,10.00,20.00,Tuesday
8,124660681.39525542
2,3, 1, 3, 0,20,20.00,30.00,Tuesday
8,127141865.37659708
2,3, 1, 3, 0,20,30.00,40.00,Tuesday
8,128907540.5371784
2,3, 1, 3, 0,20,40.00,50.00,Tuesday
8,133204796.48164015
2,3, 1, 3, 0,20,50.00,60.00,Tuesday
8,136427898.22533348
2,3, 1, 3, 0,21, 0.00,10.00,Tuesday
8,137985281.77747428
2,3, 1, 3, 0,21,10.00,20.00,Tuesday
8,138556228.03503883
2,3, 1, 3, 0,21,20.00,30.00,Tuesday
8,138341196.13760376
2,3, 1, 3, 0,21,30.00,40.00,Tuesday
8,138361573.16937405
2,3, 1, 3, 0,21,40.00,50.00,Tuesday
8,138471307.61556336
2,3, 1, 3, 0,21,50.00,60.00,Tuesday
8,137593268.3019786
2,3, 1, 3, 0,22, 0.00,10.00,Tuesday
8,7236318.268693641
2,3, 1, 3, 0,22,10.00,20.00,Tuesday
8,8082737.460621655
2,3, 1, 3, 0,22,20.00,30.00,Tuesday
8,11353421.261445718
2,3, 1, 3, 0,22,30.00,40.00,Tuesday
8,14060113.171448724
2,3, 1, 3, 0,22,40.00,50.00,Tuesday
8,16497323.22897248
2,3, 1, 3, 0,22,50.00,60.00,Tuesday
8,22050442.156001344
2,3, 1, 3, 0,23, 0.00,10.00,Tuesday
8,28875118.27286735
2,3, 1, 3, 0,23,10.00,20.00,Tuesday
8,35777658.69831996
2,3, 1, 3, 0,23,20.00,30.00,Tuesday
8,34511842.89638328
2,3, 1, 3, 0,23,30.00,40.00,Tuesday
8,34359459.96169383
2,3, 1, 3, 0,23,40.00,50.00,Tuesday
8,34019275.869286485
2,3, 1, 3, 0,23,50.00,60.00,Tuesday
8,33541857.979768947
2,3, 1, 3, 0,24, 0.00,10.00,Tuesday
8,39909474.33718262
2,3, 1, 3, 0,24,10.00,20.00,Tuesday
8,42717168.044974454
2,3, 1, 3, 0,24,20.00,30.00,Tuesday
8,45622200.72860715
2,3, 1, 3, 0,24,30.00,40.00,Tuesday
8,48470674.03493592
2,3, 1, 3, 0,24,40.00,50.00,Tuesday
8,51807631.78236326
2,3, 1, 3, 0,24,50.00,60.00,Tuesday
8,53984952.458411686
2,4, 1, 4, 0, 1, 0.00,10.00,Wednesday
8,56019811.01166469
2,4, 1, 4, 0, 1,10.00,20.00,Wednesday
8,56900186.24339342
2,4, 1, 4, 0, 1,20.00,30.00,Wednesday
8,58106406.50661391
2,4, 1, 4, 0, 1,30.00,40.00,Wednesday
8,58129202.81732836
2,4, 1, 4, 0, 1,40.00,50.00,Wednesday
8,58644123.61041918
2,4, 1, 4, 0, 1,50.00,60.00,Wednesday
8,59105688.17923257
2,4, 1, 4, 0, 2, 0.00,10.00,Wednesday
8,61406425.241284624
2,4, 1, 4, 0, 2,10.00,20.00,Wednesday
8,62305824.378376566
2,4, 1, 4, 0, 2,20.00,30.00,Wednesday
8,63691091.4063688
2,4, 1, 4, 0, 2,30.00,40.00,Wednesday
8,65039142.472367875
2,4, 1, 4, 0, 2,40.00,50.00,Wednesday
8,66905674.26164154
2,4, 1, 4, 0, 2,50.00,60.00,Wednesday
8,67618759.57585235
2,4, 1, 4, 0, 3, 0.00,10.00,Wednesday
8,67262763.61212435
2,4, 1, 4, 0, 3,10.00,20.00,Wednesday
8,66892817.67134202
2,4, 1, 4, 0, 3,20.00,30.00,Wednesday
8,67078062.012861066
2,4, 1, 4, 0, 3,30.00,40.00,Wednesday
8,66145279.374475144
2,4, 1, 4, 0, 3,40.00,50.00,Wednesday
8,65770229.837727375
2,4, 1, 4, 0, 3,50.00,60.00,Wednesday
8,65395276.8173622
2,4, 1, 4, 0, 4, 0.00,10.00,Wednesday
8,66472019.55200927
2,4, 1, 4, 0, 4,10.00,20.00,Wednesday
8,66504044.011052474
2,4, 1, 4, 0, 4,20.00,30.00,Wednesday
8,67107607.649326585
2,4, 1, 4, 0, 4,30.00,40.00,Wednesday
8,67711922.4064128
2,4, 1, 4, 0, 4,40.00,50.00,Wednesday
8,68874963.03182209
2,4, 1, 4, 0, 4,50.00,60.00,Wednesday
8,68917326.44441962
2,4, 1, 4, 0, 5, 0.00,10.00,Wednesday
8,68901946.07500853
2,4, 1, 4, 0, 5,10.00,20.00,Wednesday
8,68884904.95327075
2,4, 1, 4, 0, 5,20.00,30.00,Wednesday
8,69426213.69035296
2,4, 1, 4, 0, 5,30.00,40.00,Wednesday
8,68848287.2304472
2,4, 1, 4, 0, 5,40.00,50.00,Wednesday
8,68829318.1219004
2,4, 1, 4, 0, 5,50.00,60.00,Wednesday
8,68810678.48287043
2,4, 1, 4, 0, 6, 0.00,10.00,Wednesday
8,69352994.45301016
2,4, 1, 4, 0, 6,10.00,20.00,Wednesday
8,68750518.05676489
2,4, 1, 4, 0, 6,20.00,30.00,Wednesday
8,68698970.17812246
2,4, 1, 4, 0, 6,30.00,40.00,Wednesday
8,68643839.06717077
2,4, 1, 4, 0, 6,40.00,50.00,Wednesday
8,69145947.78182107
2,4, 1, 4, 0, 6,50.00,60.00,Wednesday
8,68526131.62537766
2,4, 1, 4, 0, 7, 0.00,10.00,Wednesday
8,69261463.51860794
2,4, 1, 4, 0, 7,10.00,20.00,Wednesday
8,70076117.05010355
2,4, 1, 4, 0, 7,20.00,30.00,Wednesday
8,71469488.07832624
2,4, 1, 4, 0, 7,30.00,40.00,Wednesday
8,71747081.41297883
2,4, 1, 4, 0, 7,40.00,50.00,Wednesday
8,72587229.40845253
2,4, 1, 4, 0, 7,50.00,60.00,Wednesday
8,73429821.18059207
2,4, 1, 4, 0, 8, 0.00,10.00,Wednesday
8,130162979.04283924
2,4, 1, 4, 0, 8,10.00,20.00,Wednesday
8,101705505.78293203
2,4, 1, 4, 0, 8,20.00,30.00,Wednesday
8,101786814.7413507
2,4, 1, 4, 0, 8,30.00,40.00,Wednesday
8,98609896.23715347
2,4, 1, 4, 0, 8,40.00,50.00,Wednesday
8,97074791.96058798
2,4, 1, 4, 0, 8,50.00,60.00,Wednesday
8,95614012.33563703
2,4, 1, 4, 0, 9, 0.00,10.00,Wednesday
8,124695213.42837805
2,4, 1, 4, 0, 9,10.00,20.00,Wednesday
8,134285994.62603006
2,4, 1, 4, 0, 9,20.00,30.00,Wednesday
8,102247623.54876417
2,4, 1, 4, 0, 9,30.00,40.00,Wednesday
8,113306036.38553445
2,4, 1, 4, 0, 9,40.00,50.00,Wednesday
8,110331286.4248597
2,4, 1, 4, 0, 9,50.00,60.00,Wednesday
8,108923481.78629641
2,4, 1, 4, 0,10, 0.00,10.00,Wednesday
8,195515530.5444222
2,4, 1, 4, 0,10,10.00,20.00,Wednesday
8,191986481.54656136
2,4, 1, 4, 0,10,20.00,30.00,Wednesday
8,189806919.8857918
2,4, 1, 4, 0,10,30.00,40.00,Wednesday
8,187817336.78635395
2,4, 1, 4, 0,10,40.00,50.00,Wednesday
8,185950407.36333123
2,4, 1, 4, 0,10,50.00,60.00,Wednesday
8,184239991.5278953
2,4, 1, 4, 0,11, 0.00,10.00,Wednesday
8,178980470.8604081
2,4, 1, 4, 0,11,10.00,20.00,Wednesday
8,177678160.0326152
2,4, 1, 4, 0,11,20.00,30.00,Wednesday
8,176891180.6103103
2,4, 1, 4, 0,11,30.00,40.00,Wednesday
8,176068888.5648095
2,4, 1, 4, 0,11,40.00,50.00,Wednesday
8,175267844.32515758
2,4, 1, 4, 0,11,50.00,60.00,Wednesday
8,174626433.1179584
2,4, 1, 4, 0,12, 0.00,10.00,Wednesday
8,168561264.1320164
2,4, 1, 4, 0,12,10.00,20.00,Wednesday
8,164572420.82661662
2,4, 1, 4, 0,12,20.00,30.00,Wednesday
8,160959309.00179338
2,4, 1, 4, 0,12,30.00,40.00,Wednesday
8,157540048.5511418
2,4, 1, 4, 0,12,40.00,50.00,Wednesday
8,154329894.7094619
2,4, 1, 4, 0,12,50.00,60.00,Wednesday
8,151291105.22849584
2,4, 1, 4, 0,13, 0.00,10.00,Wednesday
8,147249348.55084538
2,4, 1, 4, 0,13,10.00,20.00,Wednesday
8,145196507.36486894
2,4, 1, 4, 0,13,20.00,30.00,Wednesday
8,143378453.60246155
2,4, 1, 4, 0,13,30.00,40.00,Wednesday
8,141678678.11009988
2,4, 1, 4, 0,13,40.00,50.00,Wednesday
8,140045016.3715428
2,4, 1, 4, 0,13,50.00,60.00,Wednesday
8,138472847.3555254
2,4, 1, 4, 0,14, 0.00,10.00,Wednesday
8,135997115.8548863
2,4, 1, 4, 0,14,10.00,20.00,Wednesday
8,134300488.33124134
2,4, 1, 4, 0,14,20.00,30.00,Wednesday
8,132752844.19529745
2,4, 1, 4, 0,14,30.00,40.00,Wednesday
8,131379997.64839056
2,4, 1, 4, 0,14,40.00,50.00,Wednesday
8,130108841.90427408
2,4, 1, 4, 0,14,50.00,60.00,Wednesday
8,128907265.88433297
2,4, 1, 4, 0,15, 0.00,10.00,Wednesday
8,130525506.84549144
2,4, 1, 4, 0,15,10.00,20.00,Wednesday
8,131471136.08084977
2,4, 1, 4, 0,15,20.00,30.00,Wednesday
8,132401049.03424264
2,4, 1, 4, 0,15,30.00,40.00,Wednesday
8,133482659.38060531
2,4, 1, 4, 0,15,40.00,50.00,Wednesday